LAMMPS data file for mol object with MOF-FF params from www.mofplus.org

       216 atoms
       256 bonds
       536 angles
      1024 dihedrals
        64 impropers
         9 atom types
        10 bond types
        16 angle types
        23 dihedral types
         3 improper types

    0.000000    15.576947  xlo xhi
    0.000000    15.572424  ylo yhi
    0.000000    19.251902  zlo zhi
    0.000000     0.000000     0.000000  xy xz yz

Masses

    1    63.5460 # buck6d->(cu6_cu1n1o4@cu2p)|CuPW_dabco/gaussian->(cu6_cu1n1o4@cu2p)|CuPW_dabco
    2    15.9994 # buck6d->(o2_c1cu1@co2)|CuPW_dabco/gaussian->(o2_c1cu1@co2)|CuPW_dabco
    3    12.0107 # buck6d->(c3_c1o2@co2)|CuPW_dabco/gaussian->(c3_c1o2@co2)|CuPW_dabco
    4    12.0107 # buck6d->(c3_c2h1@ph)|benzene/gaussian->(c3_c2h1@ph)|benzene
    5    12.0107 # buck6d->(c3_c2h1@ph)|benzene/gaussian->(c3_c3@ph)|CuPW_dabco
    6     1.0079 # buck6d->(h1_c1@ph)|benzene/gaussian->(h1_c1@ph)|benzene
    7    14.0067 # buck6d->(n4_c3cu1@dab)|dabco/gaussian->(n4_c3cu1@dab)|dabco
    8    12.0107 # buck6d->(c4_c1h2n1@dab)|dabco/gaussian->(c4_c1h2n1@dab)|dabco
    9     1.0079 # buck6d->(h1_c1@dab)|dabco/gaussian->(h1_c1@dab)|dabco

Atoms

         1     1     1    0.40000     0.009514    15.566135     1.479486 # buck6d->(cu6_cu1n1o4@cu2p)|CuPW_dabco
         2     1     1    0.40000     0.008439    15.564188    17.777422 # buck6d->(cu6_cu1n1o4@cu2p)|CuPW_dabco
         3     1     2   -0.65000    14.190633     1.458733    18.120128 # buck6d->(o2_c1cu1@co2)|CuPW_dabco
         4     1     3    0.80000    13.750446     1.839290    19.251402 # buck6d->(c3_c1o2@co2)|CuPW_dabco
         5     1     2   -0.65000    14.128592     1.396720     1.130590 # buck6d->(o2_c1cu1@co2)|CuPW_dabco
         6     1     2   -0.65000     1.473220     1.389703    18.123326 # buck6d->(o2_c1cu1@co2)|CuPW_dabco
         7     1     3    0.80000     1.851515     1.834613     0.000632 # buck6d->(c3_c1o2@co2)|CuPW_dabco
         8     1     2   -0.65000     1.408251     1.456366     1.130448 # buck6d->(o2_c1cu1@co2)|CuPW_dabco
         9     1     2   -0.65000    14.127802    14.160903    18.129021 # buck6d->(o2_c1cu1@co2)|CuPW_dabco
        10     1     3    0.80000    13.750639    13.718243     0.008475 # buck6d->(c3_c1o2@co2)|CuPW_dabco
        11     1     2   -0.65000    14.191185    14.099365     1.139341 # buck6d->(o2_c1cu1@co2)|CuPW_dabco
        12     1     2   -0.65000     1.407305    14.101207    18.124190 # buck6d->(o2_c1cu1@co2)|CuPW_dabco
        13     1     3    0.80000     1.850673    13.722168     0.001754 # buck6d->(c3_c1o2@co2)|CuPW_dabco
        14     1     2   -0.65000     1.473254    14.166980     1.131296 # buck6d->(o2_c1cu1@co2)|CuPW_dabco
        15     1     1    0.40000     7.797711     7.779633     1.479478 # buck6d->(cu6_cu1n1o4@cu2p)|CuPW_dabco
        16     1     1    0.40000     7.799630     7.780732    17.777415 # buck6d->(cu6_cu1n1o4@cu2p)|CuPW_dabco
        17     1     2   -0.65000     6.332714     9.175510    18.120155 # buck6d->(o2_c1cu1@co2)|CuPW_dabco
        18     1     3    0.80000     5.952027     9.615541    19.251453 # buck6d->(c3_c1o2@co2)|CuPW_dabco
        19     1     2   -0.65000     6.394701     9.237516     1.130650 # buck6d->(o2_c1cu1@co2)|CuPW_dabco
        20     1     2   -0.65000     9.203018     9.238232    18.129063 # buck6d->(o2_c1cu1@co2)|CuPW_dabco
        21     1     3    0.80000     9.645846     9.615237     0.008497 # buck6d->(c3_c1o2@co2)|CuPW_dabco
        22     1     2   -0.65000     9.264577     9.174811     1.139350 # buck6d->(o2_c1cu1@co2)|CuPW_dabco
        23     1     2   -0.65000     6.401672     6.315960    18.123310 # buck6d->(o2_c1cu1@co2)|CuPW_dabco
        24     1     3    0.80000     5.956646     5.937797     0.000622 # buck6d->(c3_c1o2@co2)|CuPW_dabco
        25     1     2   -0.65000     6.335060     6.380915     1.130443 # buck6d->(o2_c1cu1@co2)|CuPW_dabco
        26     1     2   -0.65000     9.262680     6.381934    18.124120 # buck6d->(o2_c1cu1@co2)|CuPW_dabco
        27     1     3    0.80000     9.641906     5.938726     0.001681 # buck6d->(c3_c1o2@co2)|CuPW_dabco
        28     1     2   -0.65000     9.196959     6.315980     1.131221 # buck6d->(o2_c1cu1@co2)|CuPW_dabco
        29     1     4   -0.12000    12.236818     3.441984    18.038839 # buck6d->(c3_c2h1@ph)|benzene
        30     1     4   -0.12000    11.246985     4.428794    18.039538 # buck6d->(c3_c2h1@ph)|benzene
        31     1     5    0.00000    10.708506     4.879022     0.001286 # buck6d->(c3_c2h1@ph)|benzene
        32     1     4   -0.12000    11.162365     4.342542     1.214378 # buck6d->(c3_c2h1@ph)|benzene
        33     1     4   -0.12000    12.152342     3.355931     1.213765 # buck6d->(c3_c2h1@ph)|benzene
        34     1     5    0.00000    12.689287     2.904269     0.000007 # buck6d->(c3_c2h1@ph)|benzene
        35     1     6    0.12000    10.899939     4.843108    17.090112 # buck6d->(h1_c1@ph)|benzene
        36     1     6    0.12000    10.747856     4.688007     2.164282 # buck6d->(h1_c1@ph)|benzene
        37     1     6    0.12000    12.499689     2.942000     2.163287 # buck6d->(h1_c1@ph)|benzene
        38     1     6    0.12000    12.651504     3.096546    17.088923 # buck6d->(h1_c1@ph)|benzene
        39     1     7    0.60000    15.550693    15.567907     3.506150 # buck6d->(n4_c3cu1@dab)|dabco
        40     1     8   -0.04000     0.679974    14.376901     4.033656 # buck6d->(c4_c1h2n1@dab)|dabco
        41     1     8   -0.04000     0.650696     1.202894     4.034378 # buck6d->(c4_c1h2n1@dab)|dabco
        42     1     8   -0.04000    14.165590    15.551439     4.033684 # buck6d->(c4_c1h2n1@dab)|dabco
        43     1     8   -0.04000     0.651623     1.201788    15.223043 # buck6d->(c4_c1h2n1@dab)|dabco
        44     1     9    0.02000     1.686791     1.231986     3.656668 # buck6d->(h1_c1@dab)|dabco
        45     1     9    0.02000     0.143138     2.102871     3.646469 # buck6d->(h1_c1@dab)|dabco
        46     1     8   -0.04000     0.679214    14.375761    15.222278 # buck6d->(c4_c1h2n1@dab)|dabco
        47     1     9    0.02000     0.195873    13.464870     3.643930 # buck6d->(h1_c1@dab)|dabco
        48     1     9    0.02000     1.716987    14.374442     3.657463 # buck6d->(h1_c1@dab)|dabco
        49     1     8   -0.04000    14.165693    15.550782    15.223424 # buck6d->(c4_c1h2n1@dab)|dabco
        50     1     9    0.02000    13.620140     0.857754     3.650389 # buck6d->(h1_c1@dab)|dabco
        51     1     9    0.02000    13.640672    14.660679     3.649400 # buck6d->(h1_c1@dab)|dabco
        52     1     9    0.02000     0.192871    13.463977    15.609821 # buck6d->(h1_c1@dab)|dabco
        53     1     9    0.02000     1.715692    14.371065    15.600177 # buck6d->(h1_c1@dab)|dabco
        54     1     9    0.02000     1.688369     1.228723    15.598823 # buck6d->(h1_c1@dab)|dabco
        55     1     9    0.02000     0.146336     2.102075    15.613140 # buck6d->(h1_c1@dab)|dabco
        56     1     9    0.02000    13.641248    14.659180    15.606241 # buck6d->(h1_c1@dab)|dabco
        57     1     7    0.60000    15.550861    15.566778    15.750681 # buck6d->(n4_c3cu1@dab)|dabco
        58     1     9    0.02000    13.619956     0.856283    15.608386 # buck6d->(h1_c1@dab)|dabco
        59     1     4   -0.12000     4.441425     4.337140    18.038817 # buck6d->(c3_c2h1@ph)|benzene
        60     1     4   -0.12000     3.452851     3.349095    18.038819 # buck6d->(c3_c2h1@ph)|benzene
        61     1     5    0.00000     2.912903     2.899507     0.000084 # buck6d->(c3_c2h1@ph)|benzene
        62     1     4   -0.12000     3.361571     3.440457     1.213147 # buck6d->(c3_c2h1@ph)|benzene
        63     1     4   -0.12000     4.350110     4.428474     1.213143 # buck6d->(c3_c2h1@ph)|benzene
        64     1     5    0.00000     4.891290     4.876868     0.000078 # buck6d->(c3_c2h1@ph)|benzene
        65     1     6    0.12000     3.108938     2.932536    17.089281 # buck6d->(h1_c1@ph)|benzene
        66     1     6    0.12000     2.944775     3.096850     2.162729 # buck6d->(h1_c1@ph)|benzene
        67     1     6    0.12000     4.693921     4.845094     2.162726 # buck6d->(h1_c1@ph)|benzene
        68     1     6    0.12000     4.858152     4.680831    17.089275 # buck6d->(h1_c1@ph)|benzene
        69     1     4   -0.12000     4.434747    11.213028     1.213832 # buck6d->(c3_c2h1@ph)|benzene
        70     1     4   -0.12000     3.447629    12.202500     1.214447 # buck6d->(c3_c2h1@ph)|benzene
        71     1     5    0.00000     2.910874    12.656054     0.001360 # buck6d->(c3_c2h1@ph)|benzene
        72     1     4   -0.12000     3.361337    12.117767    18.039614 # buck6d->(c3_c2h1@ph)|benzene
        73     1     4   -0.12000     4.348660    11.128447    18.038909 # buck6d->(c3_c2h1@ph)|benzene
        74     1     5    0.00000     4.886627    10.676271     0.000074 # buck6d->(c3_c2h1@ph)|benzene
        75     1     6    0.12000     3.102001    12.616867     2.164350 # buck6d->(h1_c1@ph)|benzene
        76     1     6    0.12000     2.946825    12.464574    17.090190 # buck6d->(h1_c1@ph)|benzene
        77     1     6    0.12000     4.694280    10.713905    17.088994 # buck6d->(h1_c1@ph)|benzene
        78     1     6    0.12000     4.848888    10.865906     2.163349 # buck6d->(h1_c1@ph)|benzene
        79     1     7    0.60000     7.795364     7.815386     3.506141 # buck6d->(n4_c3cu1@dab)|dabco
        80     1     8   -0.04000     6.584756     7.144161     4.034361 # buck6d->(c4_c1h2n1@dab)|dabco
        81     1     8   -0.04000     8.982994     7.103511     4.033657 # buck6d->(c4_c1h2n1@dab)|dabco
        82     1     8   -0.04000     7.818327     9.200401     4.033670 # buck6d->(c4_c1h2n1@dab)|dabco
        83     1     8   -0.04000     8.984122     7.104267    15.222273 # buck6d->(c4_c1h2n1@dab)|dabco
        84     1     9    0.02000     8.980556     6.066510     3.657401 # buck6d->(h1_c1@dab)|dabco
        85     1     9    0.02000     9.897316     7.583331     3.644000 # buck6d->(h1_c1@dab)|dabco
        86     1     8   -0.04000     6.585823     7.143279    15.223033 # buck6d->(c4_c1h2n1@dab)|dabco
        87     1     9    0.02000     5.687190     7.655889     3.646350 # buck6d->(h1_c1@dab)|dabco
        88     1     9    0.02000     6.550820     6.108192     3.656746 # buck6d->(h1_c1@dab)|dabco
        89     1     8   -0.04000     7.818996     9.200302    15.223410 # buck6d->(c4_c1h2n1@dab)|dabco
        90     1     9    0.02000     8.711596     9.721105     3.649497 # buck6d->(h1_c1@dab)|dabco
        91     1     9    0.02000     6.942216     9.750004     3.650266 # buck6d->(h1_c1@dab)|dabco
        92     1     9    0.02000     5.687957     7.652839    15.613142 # buck6d->(h1_c1@dab)|dabco
        93     1     9    0.02000     6.553933     6.106681    15.598802 # buck6d->(h1_c1@dab)|dabco
        94     1     9    0.02000     8.983921     6.067795    15.600249 # buck6d->(h1_c1@dab)|dabco
        95     1     9    0.02000     9.898209     7.586330    15.609745 # buck6d->(h1_c1@dab)|dabco
        96     1     9    0.02000     6.943722     9.750214    15.608494 # buck6d->(h1_c1@dab)|dabco
        97     1     7    0.60000     7.796475     7.815228    15.750671 # buck6d->(n4_c3cu1@dab)|dabco
        98     1     9    0.02000     8.713132     9.720495    15.606101 # buck6d->(h1_c1@dab)|dabco
        99     1     4   -0.12000    12.155364    12.197905    18.047272 # buck6d->(c3_c2h1@ph)|benzene
       100     1     4   -0.12000    11.166865    11.209862    18.047278 # buck6d->(c3_c2h1@ph)|benzene
       101     1     5    0.00000    10.712446    10.674824     0.008915 # buck6d->(c3_c2h1@ph)|benzene
       102     1     4   -0.12000    11.249220    11.127397     1.222422 # buck6d->(c3_c2h1@ph)|benzene
       103     1     4   -0.12000    12.237802    12.115530     1.222418 # buck6d->(c3_c2h1@ph)|benzene
       104     1     5    0.00000    12.690610    12.652087     0.008905 # buck6d->(c3_c2h1@ph)|benzene
       105     1     6    0.12000    10.753818    10.862246    17.097467 # buck6d->(h1_c1@ph)|benzene
       106     1     6    0.12000    10.901690    10.713977     2.172109 # buck6d->(h1_c1@ph)|benzene
       107     1     6    0.12000    12.651379    12.462889     2.172101 # buck6d->(h1_c1@ph)|benzene
       108     1     6    0.12000    12.503163    12.610796    17.097457 # buck6d->(h1_c1@ph)|benzene
       109     1     1    0.40000     0.009514    15.566135    11.105437 # buck6d->(cu6_cu1n1o4@cu2p)|CuPW_dabco
       110     1     1    0.40000     0.008439    15.564188     8.151471 # buck6d->(cu6_cu1n1o4@cu2p)|CuPW_dabco
       111     1     2   -0.65000    14.190633     1.458733     8.494177 # buck6d->(o2_c1cu1@co2)|CuPW_dabco
       112     1     3    0.80000    13.750446     1.839290     9.625451 # buck6d->(c3_c1o2@co2)|CuPW_dabco
       113     1     2   -0.65000    14.128592     1.396720    10.756541 # buck6d->(o2_c1cu1@co2)|CuPW_dabco
       114     1     2   -0.65000     1.473220     1.389703     8.497375 # buck6d->(o2_c1cu1@co2)|CuPW_dabco
       115     1     3    0.80000     1.851516     1.834613     9.626583 # buck6d->(c3_c1o2@co2)|CuPW_dabco
       116     1     2   -0.65000     1.408251     1.456366    10.756399 # buck6d->(o2_c1cu1@co2)|CuPW_dabco
       117     1     2   -0.65000    14.127802    14.160903     8.503070 # buck6d->(o2_c1cu1@co2)|CuPW_dabco
       118     1     3    0.80000    13.750639    13.718243     9.634426 # buck6d->(c3_c1o2@co2)|CuPW_dabco
       119     1     2   -0.65000    14.191185    14.099365    10.765292 # buck6d->(o2_c1cu1@co2)|CuPW_dabco
       120     1     2   -0.65000     1.407305    14.101207     8.498240 # buck6d->(o2_c1cu1@co2)|CuPW_dabco
       121     1     3    0.80000     1.850672    13.722168     9.627705 # buck6d->(c3_c1o2@co2)|CuPW_dabco
       122     1     2   -0.65000     1.473253    14.166979    10.757247 # buck6d->(o2_c1cu1@co2)|CuPW_dabco
       123     1     1    0.40000     7.797711     7.779633    11.105429 # buck6d->(cu6_cu1n1o4@cu2p)|CuPW_dabco
       124     1     1    0.40000     7.799630     7.780732     8.151464 # buck6d->(cu6_cu1n1o4@cu2p)|CuPW_dabco
       125     1     2   -0.65000     6.332714     9.175510     8.494204 # buck6d->(o2_c1cu1@co2)|CuPW_dabco
       126     1     3    0.80000     5.952027     9.615542     9.625502 # buck6d->(c3_c1o2@co2)|CuPW_dabco
       127     1     2   -0.65000     6.394701     9.237516    10.756601 # buck6d->(o2_c1cu1@co2)|CuPW_dabco
       128     1     2   -0.65000     9.203018     9.238232     8.503112 # buck6d->(o2_c1cu1@co2)|CuPW_dabco
       129     1     3    0.80000     9.645846     9.615237     9.634447 # buck6d->(c3_c1o2@co2)|CuPW_dabco
       130     1     2   -0.65000     9.264576     9.174811    10.765301 # buck6d->(o2_c1cu1@co2)|CuPW_dabco
       131     1     2   -0.65000     6.401672     6.315960     8.497360 # buck6d->(o2_c1cu1@co2)|CuPW_dabco
       132     1     3    0.80000     5.956646     5.937797     9.626572 # buck6d->(c3_c1o2@co2)|CuPW_dabco
       133     1     2   -0.65000     6.335060     6.380915    10.756394 # buck6d->(o2_c1cu1@co2)|CuPW_dabco
       134     1     2   -0.65000     9.262680     6.381934     8.498170 # buck6d->(o2_c1cu1@co2)|CuPW_dabco
       135     1     3    0.80000     9.641906     5.938726     9.627631 # buck6d->(c3_c1o2@co2)|CuPW_dabco
       136     1     2   -0.65000     9.196958     6.315980    10.757172 # buck6d->(o2_c1cu1@co2)|CuPW_dabco
       137     1     4   -0.12000    12.236818     3.441984     8.412888 # buck6d->(c3_c2h1@ph)|benzene
       138     1     4   -0.12000    11.246985     4.428794     8.413587 # buck6d->(c3_c2h1@ph)|benzene
       139     1     5    0.00000    10.708506     4.879022     9.627237 # buck6d->(c3_c2h1@ph)|benzene
       140     1     4   -0.12000    11.162365     4.342542    10.840329 # buck6d->(c3_c2h1@ph)|benzene
       141     1     4   -0.12000    12.152342     3.355931    10.839716 # buck6d->(c3_c2h1@ph)|benzene
       142     1     5    0.00000    12.689287     2.904269     9.625958 # buck6d->(c3_c2h1@ph)|benzene
       143     1     6    0.12000    10.899939     4.843108     7.464161 # buck6d->(h1_c1@ph)|benzene
       144     1     6    0.12000    10.747856     4.688007    11.790233 # buck6d->(h1_c1@ph)|benzene
       145     1     6    0.12000    12.499689     2.942000    11.789238 # buck6d->(h1_c1@ph)|benzene
       146     1     6    0.12000    12.651503     3.096546     7.462972 # buck6d->(h1_c1@ph)|benzene
       147     1     7    0.60000    15.550693    15.567907    13.132101 # buck6d->(n4_c3cu1@dab)|dabco
       148     1     8   -0.04000     0.679974    14.376901    13.659607 # buck6d->(c4_c1h2n1@dab)|dabco
       149     1     8   -0.04000     0.650696     1.202894    13.660329 # buck6d->(c4_c1h2n1@dab)|dabco
       150     1     8   -0.04000    14.165590    15.551439    13.659635 # buck6d->(c4_c1h2n1@dab)|dabco
       151     1     8   -0.04000     0.651623     1.201788     5.597092 # buck6d->(c4_c1h2n1@dab)|dabco
       152     1     9    0.02000     1.686791     1.231986    13.282619 # buck6d->(h1_c1@dab)|dabco
       153     1     9    0.02000     0.143138     2.102871    13.272420 # buck6d->(h1_c1@dab)|dabco
       154     1     8   -0.04000     0.679214    14.375761     5.596327 # buck6d->(c4_c1h2n1@dab)|dabco
       155     1     9    0.02000     0.195873    13.464870    13.269881 # buck6d->(h1_c1@dab)|dabco
       156     1     9    0.02000     1.716987    14.374442    13.283414 # buck6d->(h1_c1@dab)|dabco
       157     1     8   -0.04000    14.165693    15.550782     5.597473 # buck6d->(c4_c1h2n1@dab)|dabco
       158     1     9    0.02000    13.620140     0.857754    13.276340 # buck6d->(h1_c1@dab)|dabco
       159     1     9    0.02000    13.640672    14.660679    13.275351 # buck6d->(h1_c1@dab)|dabco
       160     1     9    0.02000     0.192871    13.463977     5.983870 # buck6d->(h1_c1@dab)|dabco
       161     1     9    0.02000     1.715692    14.371065     5.974226 # buck6d->(h1_c1@dab)|dabco
       162     1     9    0.02000     1.688369     1.228723     5.972872 # buck6d->(h1_c1@dab)|dabco
       163     1     9    0.02000     0.146336     2.102075     5.987189 # buck6d->(h1_c1@dab)|dabco
       164     1     9    0.02000    13.641248    14.659180     5.980290 # buck6d->(h1_c1@dab)|dabco
       165     1     7    0.60000    15.550861    15.566778     6.124730 # buck6d->(n4_c3cu1@dab)|dabco
       166     1     9    0.02000    13.619956     0.856283     5.982435 # buck6d->(h1_c1@dab)|dabco
       167     1     4   -0.12000     4.441424     4.337141     8.412866 # buck6d->(c3_c2h1@ph)|benzene
       168     1     4   -0.12000     3.452851     3.349094     8.412868 # buck6d->(c3_c2h1@ph)|benzene
       169     1     5    0.00000     2.912903     2.899507     9.626035 # buck6d->(c3_c2h1@ph)|benzene
       170     1     4   -0.12000     3.361571     3.440457    10.839098 # buck6d->(c3_c2h1@ph)|benzene
       171     1     4   -0.12000     4.350110     4.428474    10.839094 # buck6d->(c3_c2h1@ph)|benzene
       172     1     5    0.00000     4.891290     4.876868     9.626029 # buck6d->(c3_c2h1@ph)|benzene
       173     1     6    0.12000     3.108938     2.932536     7.463330 # buck6d->(h1_c1@ph)|benzene
       174     1     6    0.12000     2.944775     3.096850    11.788680 # buck6d->(h1_c1@ph)|benzene
       175     1     6    0.12000     4.693921     4.845094    11.788677 # buck6d->(h1_c1@ph)|benzene
       176     1     6    0.12000     4.858152     4.680831     7.463324 # buck6d->(h1_c1@ph)|benzene
       177     1     4   -0.12000     4.434747    11.213028    10.839783 # buck6d->(c3_c2h1@ph)|benzene
       178     1     4   -0.12000     3.447629    12.202500    10.840398 # buck6d->(c3_c2h1@ph)|benzene
       179     1     5    0.00000     2.910874    12.656054     9.627311 # buck6d->(c3_c2h1@ph)|benzene
       180     1     4   -0.12000     3.361337    12.117767     8.413663 # buck6d->(c3_c2h1@ph)|benzene
       181     1     4   -0.12000     4.348660    11.128447     8.412958 # buck6d->(c3_c2h1@ph)|benzene
       182     1     5    0.00000     4.886627    10.676271     9.626025 # buck6d->(c3_c2h1@ph)|benzene
       183     1     6    0.12000     3.102001    12.616867    11.790301 # buck6d->(h1_c1@ph)|benzene
       184     1     6    0.12000     2.946825    12.464574     7.464239 # buck6d->(h1_c1@ph)|benzene
       185     1     6    0.12000     4.694280    10.713906     7.463043 # buck6d->(h1_c1@ph)|benzene
       186     1     6    0.12000     4.848888    10.865906    11.789300 # buck6d->(h1_c1@ph)|benzene
       187     1     7    0.60000     7.795364     7.815386    13.132092 # buck6d->(n4_c3cu1@dab)|dabco
       188     1     8   -0.04000     6.584756     7.144161    13.660312 # buck6d->(c4_c1h2n1@dab)|dabco
       189     1     8   -0.04000     8.982993     7.103511    13.659608 # buck6d->(c4_c1h2n1@dab)|dabco
       190     1     8   -0.04000     7.818327     9.200401    13.659621 # buck6d->(c4_c1h2n1@dab)|dabco
       191     1     8   -0.04000     8.984122     7.104267     5.596322 # buck6d->(c4_c1h2n1@dab)|dabco
       192     1     9    0.02000     8.980556     6.066510    13.283352 # buck6d->(h1_c1@dab)|dabco
       193     1     9    0.02000     9.897316     7.583331    13.269951 # buck6d->(h1_c1@dab)|dabco
       194     1     8   -0.04000     6.585823     7.143279     5.597082 # buck6d->(c4_c1h2n1@dab)|dabco
       195     1     9    0.02000     5.687190     7.655889    13.272301 # buck6d->(h1_c1@dab)|dabco
       196     1     9    0.02000     6.550820     6.108192    13.282697 # buck6d->(h1_c1@dab)|dabco
       197     1     8   -0.04000     7.818996     9.200302     5.597459 # buck6d->(c4_c1h2n1@dab)|dabco
       198     1     9    0.02000     8.711596     9.721105    13.275448 # buck6d->(h1_c1@dab)|dabco
       199     1     9    0.02000     6.942216     9.750004    13.276217 # buck6d->(h1_c1@dab)|dabco
       200     1     9    0.02000     5.687957     7.652839     5.987191 # buck6d->(h1_c1@dab)|dabco
       201     1     9    0.02000     6.553933     6.106681     5.972851 # buck6d->(h1_c1@dab)|dabco
       202     1     9    0.02000     8.983921     6.067795     5.974298 # buck6d->(h1_c1@dab)|dabco
       203     1     9    0.02000     9.898209     7.586330     5.983794 # buck6d->(h1_c1@dab)|dabco
       204     1     9    0.02000     6.943722     9.750214     5.982543 # buck6d->(h1_c1@dab)|dabco
       205     1     7    0.60000     7.796475     7.815228     6.124720 # buck6d->(n4_c3cu1@dab)|dabco
       206     1     9    0.02000     8.713132     9.720495     5.980150 # buck6d->(h1_c1@dab)|dabco
       207     1     4   -0.12000    12.155364    12.197905     8.421321 # buck6d->(c3_c2h1@ph)|benzene
       208     1     4   -0.12000    11.166865    11.209862     8.421327 # buck6d->(c3_c2h1@ph)|benzene
       209     1     5    0.00000    10.712446    10.674824     9.634866 # buck6d->(c3_c2h1@ph)|benzene
       210     1     4   -0.12000    11.249220    11.127397    10.848373 # buck6d->(c3_c2h1@ph)|benzene
       211     1     4   -0.12000    12.237802    12.115529    10.848369 # buck6d->(c3_c2h1@ph)|benzene
       212     1     5    0.00000    12.690610    12.652087     9.634856 # buck6d->(c3_c2h1@ph)|benzene
       213     1     6    0.12000    10.753818    10.862246     7.471516 # buck6d->(h1_c1@ph)|benzene
       214     1     6    0.12000    10.901690    10.713977    11.798060 # buck6d->(h1_c1@ph)|benzene
       215     1     6    0.12000    12.651379    12.462889    11.798052 # buck6d->(h1_c1@ph)|benzene
       216     1     6    0.12000    12.503163    12.610796     7.471506 # buck6d->(h1_c1@ph)|benzene

Bonds

         1     1        1        2  # ('mm3->(cu6_cu1n1o4@cu2p,cu6_cu1n1o4@cu2p)|CuPW_dabco',)
         2     2        1        5  # ('morse->(cu6_cu1n1o4@cu2p,o2_c1cu1@co2)|CuPW_dabco',)
         3     2        1        8  # ('morse->(cu6_cu1n1o4@cu2p,o2_c1cu1@co2)|CuPW_dabco',)
         4     2        1       11  # ('morse->(cu6_cu1n1o4@cu2p,o2_c1cu1@co2)|CuPW_dabco',)
         5     2        1       14  # ('morse->(cu6_cu1n1o4@cu2p,o2_c1cu1@co2)|CuPW_dabco',)
         6     3        1       39  # ('morse->(cu6_cu1n1o4@cu2p,n4_c3cu1@dab)|CuPW_dabco',)
         7     2        2        3  # ('morse->(cu6_cu1n1o4@cu2p,o2_c1cu1@co2)|CuPW_dabco',)
         8     2        2        6  # ('morse->(cu6_cu1n1o4@cu2p,o2_c1cu1@co2)|CuPW_dabco',)
         9     2        2        9  # ('morse->(cu6_cu1n1o4@cu2p,o2_c1cu1@co2)|CuPW_dabco',)
        10     2        2       12  # ('morse->(cu6_cu1n1o4@cu2p,o2_c1cu1@co2)|CuPW_dabco',)
        11     3        2       57  # ('morse->(cu6_cu1n1o4@cu2p,n4_c3cu1@dab)|CuPW_dabco',)
        12     4        3        4  # ('mm3->(c3_c1o2@co2,o2_c1cu1@co2)|CuPW_dabco',)
        13     4        4        5  # ('mm3->(c3_c1o2@co2,o2_c1cu1@co2)|CuPW_dabco',)
        14     5        4       34  # ('mm3->(c3_c1o2@co2,c3_c3@ph)|CuPW_dabco',)
        15     4        6        7  # ('mm3->(c3_c1o2@co2,o2_c1cu1@co2)|CuPW_dabco',)
        16     4        7        8  # ('mm3->(c3_c1o2@co2,o2_c1cu1@co2)|CuPW_dabco',)
        17     5        7       61  # ('mm3->(c3_c1o2@co2,c3_c3@ph)|CuPW_dabco',)
        18     4        9       10  # ('mm3->(c3_c1o2@co2,o2_c1cu1@co2)|CuPW_dabco',)
        19     4       10       11  # ('mm3->(c3_c1o2@co2,o2_c1cu1@co2)|CuPW_dabco',)
        20     5       10      104  # ('mm3->(c3_c1o2@co2,c3_c3@ph)|CuPW_dabco',)
        21     4       12       13  # ('mm3->(c3_c1o2@co2,o2_c1cu1@co2)|CuPW_dabco',)
        22     4       13       14  # ('mm3->(c3_c1o2@co2,o2_c1cu1@co2)|CuPW_dabco',)
        23     5       13       71  # ('mm3->(c3_c1o2@co2,c3_c3@ph)|CuPW_dabco',)
        24     1       15       16  # ('mm3->(cu6_cu1n1o4@cu2p,cu6_cu1n1o4@cu2p)|CuPW_dabco',)
        25     2       15       19  # ('morse->(cu6_cu1n1o4@cu2p,o2_c1cu1@co2)|CuPW_dabco',)
        26     2       15       22  # ('morse->(cu6_cu1n1o4@cu2p,o2_c1cu1@co2)|CuPW_dabco',)
        27     2       15       25  # ('morse->(cu6_cu1n1o4@cu2p,o2_c1cu1@co2)|CuPW_dabco',)
        28     2       15       28  # ('morse->(cu6_cu1n1o4@cu2p,o2_c1cu1@co2)|CuPW_dabco',)
        29     3       15       79  # ('morse->(cu6_cu1n1o4@cu2p,n4_c3cu1@dab)|CuPW_dabco',)
        30     2       16       17  # ('morse->(cu6_cu1n1o4@cu2p,o2_c1cu1@co2)|CuPW_dabco',)
        31     2       16       20  # ('morse->(cu6_cu1n1o4@cu2p,o2_c1cu1@co2)|CuPW_dabco',)
        32     2       16       23  # ('morse->(cu6_cu1n1o4@cu2p,o2_c1cu1@co2)|CuPW_dabco',)
        33     2       16       26  # ('morse->(cu6_cu1n1o4@cu2p,o2_c1cu1@co2)|CuPW_dabco',)
        34     3       16       97  # ('morse->(cu6_cu1n1o4@cu2p,n4_c3cu1@dab)|CuPW_dabco',)
        35     4       17       18  # ('mm3->(c3_c1o2@co2,o2_c1cu1@co2)|CuPW_dabco',)
        36     4       18       19  # ('mm3->(c3_c1o2@co2,o2_c1cu1@co2)|CuPW_dabco',)
        37     5       18       74  # ('mm3->(c3_c1o2@co2,c3_c3@ph)|CuPW_dabco',)
        38     4       20       21  # ('mm3->(c3_c1o2@co2,o2_c1cu1@co2)|CuPW_dabco',)
        39     4       21       22  # ('mm3->(c3_c1o2@co2,o2_c1cu1@co2)|CuPW_dabco',)
        40     5       21      101  # ('mm3->(c3_c1o2@co2,c3_c3@ph)|CuPW_dabco',)
        41     4       23       24  # ('mm3->(c3_c1o2@co2,o2_c1cu1@co2)|CuPW_dabco',)
        42     4       24       25  # ('mm3->(c3_c1o2@co2,o2_c1cu1@co2)|CuPW_dabco',)
        43     5       24       64  # ('mm3->(c3_c1o2@co2,c3_c3@ph)|CuPW_dabco',)
        44     4       26       27  # ('mm3->(c3_c1o2@co2,o2_c1cu1@co2)|CuPW_dabco',)
        45     4       27       28  # ('mm3->(c3_c1o2@co2,o2_c1cu1@co2)|CuPW_dabco',)
        46     5       27       31  # ('mm3->(c3_c1o2@co2,c3_c3@ph)|CuPW_dabco',)
        47     6       29       30  # ('mm3->(c3_c2h1@ph,c3_c2h1@ph)|benzene',)
        48     6       29       34  # ('mm3->(c3_c2h1@ph,c3_c2h1@ph)|benzene',)
        49     7       29       38  # ('mm3->(c3_c2h1@ph,h1_c1@ph)|benzene',)
        50     6       30       31  # ('mm3->(c3_c2h1@ph,c3_c2h1@ph)|benzene',)
        51     7       30       35  # ('mm3->(c3_c2h1@ph,h1_c1@ph)|benzene',)
        52     6       31       32  # ('mm3->(c3_c2h1@ph,c3_c2h1@ph)|benzene',)
        53     6       32       33  # ('mm3->(c3_c2h1@ph,c3_c2h1@ph)|benzene',)
        54     7       32       36  # ('mm3->(c3_c2h1@ph,h1_c1@ph)|benzene',)
        55     6       33       34  # ('mm3->(c3_c2h1@ph,c3_c2h1@ph)|benzene',)
        56     7       33       37  # ('mm3->(c3_c2h1@ph,h1_c1@ph)|benzene',)
        57     8       39       40  # ('mm3->(c4_c1h2n1@dab,n4_c3cu1@dab)|dabco',)
        58     8       39       41  # ('mm3->(c4_c1h2n1@dab,n4_c3cu1@dab)|dabco',)
        59     8       39       42  # ('mm3->(c4_c1h2n1@dab,n4_c3cu1@dab)|dabco',)
        60     9       40      154  # ('mm3->(c4_c1h2n1@dab,c4_c1h2n1@dab)|dabco',)
        61    10       40       47  # ('mm3->(c4_c1h2n1@dab,h1_c1@dab)|dabco',)
        62    10       40       48  # ('mm3->(c4_c1h2n1@dab,h1_c1@dab)|dabco',)
        63     9       41      151  # ('mm3->(c4_c1h2n1@dab,c4_c1h2n1@dab)|dabco',)
        64    10       41       44  # ('mm3->(c4_c1h2n1@dab,h1_c1@dab)|dabco',)
        65    10       41       45  # ('mm3->(c4_c1h2n1@dab,h1_c1@dab)|dabco',)
        66     9       42      157  # ('mm3->(c4_c1h2n1@dab,c4_c1h2n1@dab)|dabco',)
        67    10       42       50  # ('mm3->(c4_c1h2n1@dab,h1_c1@dab)|dabco',)
        68    10       42       51  # ('mm3->(c4_c1h2n1@dab,h1_c1@dab)|dabco',)
        69     9       43      149  # ('mm3->(c4_c1h2n1@dab,c4_c1h2n1@dab)|dabco',)
        70    10       43       54  # ('mm3->(c4_c1h2n1@dab,h1_c1@dab)|dabco',)
        71    10       43       55  # ('mm3->(c4_c1h2n1@dab,h1_c1@dab)|dabco',)
        72     8       43       57  # ('mm3->(c4_c1h2n1@dab,n4_c3cu1@dab)|dabco',)