432  
54   

1    
  0.0099997518688487   0.0000000355572213   0.0000704454412494
  -0.2906354700   -0.1831758800    0.1681349200
  -0.0002479100   -0.0000548700   -0.0006385200
  -0.0002876300   -0.0009716000   -0.0005954900
  -0.0002873900   -0.0010142900   -0.0006265700
  -0.0000497900   -0.0005437600   -0.0003954900
  -0.0000503400   -0.0005291000   -0.0003508100
  -0.0002255900   -0.0000227300   -0.0006455800
  -0.0002291200   -0.0000581300   -0.0006633700
  -0.0002928800   -0.0010179700   -0.0006442500
  -0.0002822400   -0.0010275100   -0.0006399400
  -0.0000557100   -0.0005319300   -0.0003597600
  -0.0000452000   -0.0005341200   -0.0003612000
   0.1492036400    0.1131832700   -0.0820204000
   0.0004139000   -0.0012601300    0.0008982100
   0.0005287600    0.0000506500    0.0009080500
   0.0005633100    0.0000982000    0.0009091700
   0.0004633000   -0.0005166600    0.0010167500
   0.0003618900   -0.0005440000    0.0009670300
   0.0003970100   -0.0012401900    0.0009083200
   0.0004111600   -0.0012566900    0.0009089000
   0.0005558200    0.0000978500    0.0008996700
   0.0005662800    0.0001076600    0.0009094500
   0.0003587200   -0.0005218000    0.0009694500
   0.0003632900   -0.0005364600    0.0009728800
   0.0075187000   -0.0012137100   -0.0359305800
   0.0004194100   -0.0001952800   -0.0006798500
   0.0005608400    0.0003236900   -0.0008212000
   0.0005706600    0.0003532400   -0.0008096700
   0.0004512300   -0.0008096600   -0.0007865100
   0.0004860500   -0.0007663900   -0.0008237400
   0.0004460400   -0.0001896300   -0.0007426600
   0.0004202500   -0.0002024700   -0.0007012100
   0.0005683100    0.0003475400   -0.0008159800
   0.0005691200    0.0003513600   -0.0008150700
   0.0004847000   -0.0007811900   -0.0008339000
   0.0004872500   -0.0007709900   -0.0008315100
  -0.0008175500   -0.0008985400    0.0012002400
  -0.0008331300   -0.0009356700    0.0011667400
  -0.0005755300   -0.0008069600    0.0010943900
  -0.0005654600   -0.0007971500    0.0011031800
  -0.0008093000   -0.0002406300    0.0011434600
  -0.0008036700   -0.0002667700    0.0011450100
  -0.0106918200   -0.0034045300    0.0081511200
  -0.0008262000   -0.0009548900    0.0011556800
  -0.0005804400   -0.0008096000    0.0011081400
  -0.0005627000   -0.0007994000    0.0011063800
  -0.0008909600   -0.0002856600    0.0011552500
  -0.0008091500   -0.0002781700    0.0011411600
  -0.0005391300   -0.0005806100   -0.0010558900
  -0.0005157100   -0.0006317000   -0.0010424900
  -0.0006449900   -0.0010753000   -0.0011307600
  -0.0006407900   -0.0010774200   -0.0011218100
  -0.0007372900   -0.0003568000   -0.0011844200
  -0.0006995400   -0.0003461000   -0.0011855100
  -0.0004311800   -0.0064603600   -0.0080020200
  -0.0004942300   -0.0006160100   -0.0010359600
  -0.0006518600   -0.0010922100   -0.0011314500
  -0.0006341900   -0.0010813200   -0.0011186900
  -0.0007008100   -0.0003198300   -0.0012048100
  -0.0006968300   -0.0003399000   -0.0011858800
   0.0010224200    0.0000662900   -0.0011689800
   0.0010856000    0.0001154800   -0.0010180800
   0.0007867800    0.0006173000   -0.0011271100
   0.0007836900    0.0006105200   -0.0011265700
   0.0010523200    0.0007401500   -0.0011878900
  -0.0178700700   -0.0054405700    0.0201478500
   0.0010165500    0.0000432300   -0.0011805800
   0.0010224500    0.0000808200   -0.0011740900
   0.0007859600    0.0006146600   -0.0011292800
   0.0007815000    0.0006113000   -0.0011333000
   0.0010588100    0.0007410900   -0.0011858400
   0.0010174000    0.0007136700   -0.0011977200
   0.0007358900    0.0004146700    0.0015304300
   0.0007500900    0.0003684700    0.0014803600
   0.0006760000    0.0011588900    0.0014589000
   0.0006529800    0.0011584000    0.0014521100
   0.0005440600    0.0006952600    0.0013883800
   0.0902901300    0.0576719700   -0.0052977500
   0.0007515800    0.0004299300    0.0015368500
   0.0007319100    0.0004251700    0.0015243900
   0.0006778100    0.0011592700    0.0014611800
   0.0006759600    0.0011631400    0.0014558600
   0.0005521400    0.0006925100    0.0013895600
   0.0005604600    0.0007026100    0.0013462100
   0.0002076700    0.0007011400    0.0004181400
   0.0001911200    0.0007016600    0.0004268800
   0.0004452600    0.0011845000    0.0006911800
   0.0004406800    0.0011909200    0.0006786400
   0.0004060000    0.0002175700    0.0007216400
   0.0005538200    0.0003922300    0.0008266300
   0.0002242300    0.0006943900    0.0003984800
   0.0002126900    0.0007080800    0.0004142300
   0.0004486000    0.0011812800    0.0006818700
   0.0004650400    0.0012004700    0.0006960800
   0.0004124800    0.0002112100    0.0006887900
   0.0040369400    0.0072664200   -0.0000936700
  -0.0000842500    0.0003790700   -0.0008441300
  -0.0000812800    0.0004187400   -0.0008386200
  -0.0002840100   -0.0002225300   -0.0007662300
  -0.0002874600   -0.0002224600   -0.0007685000
  -0.0001186000    0.0011074000   -0.0007620500
  -0.0001277300    0.0009769900   -0.0008098600
  -0.0000825800    0.0003874000   -0.0008292600
  -0.0000903400    0.0003720200   -0.0008026100
  -0.0002829400   -0.0002186900   -0.0007619700
  -0.0002973000   -0.0002247500   -0.0007475200
  -0.0001265500    0.0011239300   -0.0007637400
  -0.0025502400    0.0003609300    0.0059039200
  -0.0002601300    0.0008475900    0.0009983500
  -0.0002643600    0.0008259900    0.0009895800
  -0.0003438400   -0.0002877700    0.0009675200
  -0.0003423500   -0.0002894200    0.0009679700
  -0.0001873700    0.0002813300    0.0008346500
  -0.0001824100    0.0002998400    0.0007988900
  -0.0002565300    0.0008364800    0.0009806400
  -0.0002352500    0.0007969700    0.0009001800
  -0.0003445300   -0.0002904500    0.0009636700
  -0.0003415400   -0.0003071300    0.0009369400
  -0.0001985300    0.0002765100    0.0008428700
   0.0151718300    0.0121080800   -0.0047925500
   0.0005891600   -0.0003285200   -0.0011462700
   0.0006302800   -0.0003665200   -0.0012014500
   0.0006191000   -0.0009896900   -0.0012103400
   0.0006298300   -0.0009930700   -0.0012046000
   0.0003843500   -0.0007443400   -0.0013224700
   0.0003380900   -0.0009125700   -0.0012282000
   0.0006346800   -0.0003487500   -0.0011859500
   0.0005964100   -0.0003002300   -0.0011955100
   0.0006163900   -0.0009864900   -0.0012108300
   0.0006251400   -0.0009873800   -0.0012077900
   0.0003456200   -0.0008705600   -0.0011422400
   0.0003521300   -0.0008451600   -0.0011400900
   0.0005664200   -0.0004149800    0.0010342200
   0.0005167800   -0.0004771200    0.0010377300
   0.0003424300   -0.0007017200    0.0009153800
   0.0003534100   -0.0007032700    0.0009154400
   0.0003849000   -0.0009354300    0.0012669800
   0.0004685900   -0.0010897600    0.0009937000
   0.0005047300   -0.0004102900    0.0011079500
   0.0005592200   -0.0004406900    0.0010386300
   0.0003461600   -0.0007038200    0.0009133300
   0.0003512700   -0.0007034400    0.0009173700
   0.0004645900   -0.0011526400    0.0009957700
   0.0004896000   -0.0011707900    0.0009906800
  -0.0004158600    0.0010938600   -0.0007560100
  -0.0004126200    0.0010767100   -0.0006295300
  -0.0003878300    0.0001598400   -0.0007886700
  -0.0003876800    0.0001568500   -0.0007831700
  -0.0001663800    0.0005395200   -0.0005578900
  -0.0001691700    0.0006649200   -0.0003830700
  -0.0004342900    0.0011452200   -0.0007464800
  -0.0004339300    0.0011485200   -0.0007744400
  -0.0003805600    0.0001630400   -0.0007949700
  -0.0003803500    0.0001626700   -0.0007964600
  -0.0001889000    0.0006257500   -0.0004846300
  -0.0001883800    0.0006284300   -0.0005072700
   0.0002520300   -0.0001862000    0.0008212800
   0.0007925200    0.0000188500    0.0008366600
   0.0001246900    0.0011257600    0.0008015100
   0.0001127000    0.0011406000    0.0007899000
   0.0000205200    0.0004212400    0.0009299800
   0.0001758600    0.0003996100    0.0009231900
   0.0002577000   -0.0001655800    0.0007792900
   0.0002784700   -0.0002278500    0.0008032100
   0.0001299400    0.0011244400    0.0008103600
   0.0001233400    0.0011296200    0.0008051700
   0.0000798900    0.0004123400    0.0008682300
   0.0000710300    0.0004187600    0.0008720500
   0.0004201100   -0.0002783300   -0.0009443400
   0.0005296900   -0.0003390400   -0.0010331700
   0.0002610800    0.0002828200   -0.0008183800
   0.0002585600    0.0002756100   -0.0008119600
   0.0003415900    0.0008464800   -0.0010049000
   0.0003716400    0.0008536900   -0.0010978800
   0.0003574700   -0.0003230100   -0.0009685600
   0.0003896000   -0.0002655500   -0.0009346100
   0.0002638300    0.0002874800   -0.0008269000
   0.0002615500    0.0002829900   -0.0008230000
   0.0003183900    0.0008433400   -0.0009089800
   0.0003226700    0.0008446700   -0.0009576600
   0.0001021700   -0.0006335700    0.0006559500
   0.0000554700   -0.0005179300    0.0004624600
   0.0002439800   -0.0000547300    0.0007502900
   0.0002499200   -0.0000492500    0.0007482800
   0.0003388800   -0.0010798600    0.0007285900
   0.0002924500   -0.0010073900    0.0007356400
   0.0000663600   -0.0005269400    0.0004459400
   0.0000698200   -0.0006153900    0.0004563700
   0.0002475000   -0.0000463200    0.0007431600
   0.0002529400   -0.0000436400    0.0007411400
   0.0003034000   -0.0010586300    0.0007164800
   0.0003051100   -0.0010592900    0.0007601800
  -0.0004326400   -0.0006598600   -0.0010866000
  -0.0003942500   -0.0006053500   -0.0010086500
  -0.0004584700   -0.0013098800   -0.0009438200
  -0.0004474600   -0.0013142700   -0.0009379700
  -0.0008036800    0.0001172000   -0.0008356600
  -0.0005940000    0.0000326400   -0.0009406600
  -0.0003929900   -0.0006210600   -0.0009937600
  -0.0004041100   -0.0006160200   -0.0009246300
  -0.0004509400   -0.0013169200   -0.0009412700
  -0.0004437800   -0.0013224200   -0.0009330200
  -0.0006142300    0.0000434900   -0.0009103300
  -0.0005708700    0.0000475600   -0.0008765200
  -0.0005927700   -0.0007591700    0.0008616800
  -0.0005662200   -0.0007908900    0.0008145000
  -0.0005017600   -0.0002178200    0.0006812800
  -0.0005008200   -0.0002181900    0.0006845500
  -0.0005977100    0.0001995200    0.0007594400
  -0.0006534600    0.0003281200    0.0008062100
  -0.0005674700   -0.0007974800    0.0007921000
  -0.0006787800   -0.0006755700    0.0007703000
  -0.0005028900   -0.0002155100    0.0006820900
  -0.0004977900   -0.0002157700    0.0006791600
  -0.0006303900    0.0002559300    0.0007475700
  -0.0007357400    0.0003220100    0.0007560000
  -0.0004481600    0.0008507400    0.0009021800
  -0.0006069800    0.0006547900    0.0010953000
  -0.0008675200    0.0007751600    0.0011676000
  -0.0008759800    0.0007809000    0.0011600700
  -0.0008390400    0.0000747600    0.0011474900
  -0.0008494700    0.0001128400    0.0011411500
  -0.0006357100    0.0006545400    0.0011051700
  -0.0005955500    0.0008180800    0.0011441100
  -0.0008759600    0.0007840200    0.0011580400
  -0.0008891800    0.0007945600    0.0011490900
  -0.0008637100    0.0001312400    0.0011730400
  -0.0008900400    0.0001084600    0.0011609500
   0.0000904600    0.0013873900   -0.0008490600
  -0.0004851000    0.0012527200   -0.0012824900
  -0.0003570500    0.0007901100   -0.0012155100
  -0.0003591200    0.0007890400   -0.0012127800
  -0.0005724200    0.0005136200   -0.0012940100
  -0.0005428100    0.0005113800   -0.0013565000
  -0.0004828600    0.0012657700   -0.0013108200
  -0.0004657400    0.0012999900   -0.0014098900
  -0.0003530500    0.0007828000   -0.0012155300
  -0.0003563800    0.0007813600   -0.0012133500
  -0.0005519000    0.0005284100   -0.0013961400
  -0.0005865800    0.0005568700   -0.0013576000
   0.0548515200   -0.0097474100   -0.0646142900
  -0.0006673700    0.0004632600   -0.0003871700
  -0.0005646200    0.0001604400   -0.0003790800
  -0.0005753900    0.0001797600   -0.0003731900
  -0.0005636800    0.0008378900   -0.0003431700
  -0.0005858400    0.0008416000   -0.0003600400
  -0.0006890900    0.0004524100   -0.0003908100
  -0.0006770300    0.0004626700   -0.0003865000
  -0.0005690500    0.0001785300   -0.0003714200
  -0.0005785900    0.0001911200   -0.0003702600
  -0.0005795200    0.0008437500   -0.0003584300
  -0.0005884800    0.0008420700   -0.0003594000
   0.0012407500    0.0049671300   -0.0061751800
  -0.0000533900    0.0001332800   -0.0003202800
  -0.0001797400   -0.0004182000   -0.0002197600
  -0.0001748500   -0.0004123200   -0.0002225400
  -0.0002451600    0.0001880000   -0.0001853600
  -0.0001824900    0.0001892300   -0.0001753000
  -0.0000312200    0.0001202700   -0.0003292200
  -0.0000386900    0.0001305800   -0.0003359100
  -0.0001696000   -0.0004155000   -0.0002243900
  -0.0001725200   -0.0004109600   -0.0002259200
  -0.0001703700    0.0001830900   -0.0001757600
  -0.0001782600    0.0001890800   -0.0001840300
   0.0001053100    0.0003956500   -0.0000190700
   0.0000727400    0.0004014000   -0.0000160100
   0.0001489100    0.0000185600   -0.0000900700
   0.0001434400    0.0000203200   -0.0000907900
   0.0000549600   -0.0002226200    0.0000299100
   0.0000344600   -0.0002204300    0.0000216200
   0.0000869900    0.0004064400    0.0002517000
   0.0000550300    0.0004040000   -0.0000188800
   0.0001432100    0.0000186400   -0.0000864900
   0.0001414900    0.0000209600   -0.0000892300
   0.0001144100   -0.0002056900    0.0000368400
   0.0000333300   -0.0002208300    0.0000209300
  -0.0000913400    0.0001327400    0.0002988600
  -0.0002105200    0.0000415800    0.0002838200
  -0.0001836700    0.0004998900    0.0003223800
  -0.0001863600    0.0005027700    0.0003186200
  -0.0002588900   -0.0000759900    0.0003741700
  -0.0002875100   -0.0000614600    0.0003444300
   0.0002784700   -0.0003295000    0.0003032400
  -0.0002253300    0.0000324700    0.0002686900
  -0.0001891100    0.0004951000    0.0003198700
  -0.0001900500    0.0004995900    0.0003150500
  -0.0002861700   -0.0000598000    0.0003419000
  -0.0002891100   -0.0000656700    0.0003397400
  -0.0001633000    0.0001575700   -0.0000931400
  -0.0001803600    0.0002222700   -0.0002682300
  -0.0002635300   -0.0000844800    0.0000214400
  -0.0002601300   -0.0000828000    0.0000197900
  -0.0002002200   -0.0004649200   -0.0000540500
  -0.0051983700    0.0012761100   -0.0040144200
  -0.0001803400    0.0001493200   -0.0001018600
  -0.0001602000    0.0001582800   -0.0000881000
  -0.0002629200   -0.0000849000    0.0000231400
  -0.0002614700   -0.0000852300    0.0000230600
  -0.0002044900   -0.0004617000   -0.0000558900
  -0.0001945100   -0.0004662800   -0.0000526200
   0.0001679200    0.0001273000   -0.0003042000
   0.0001618300    0.0001856000   -0.0002424300
   0.0000762400   -0.0004366900   -0.0002759900
   0.0000761200   -0.0004444900   -0.0002751100
   0.0000946000    0.0000246300   -0.0002464500
   0.0020848700    0.0133218400    0.0066486500
   0.0001545700    0.0001211500   -0.0003193500
   0.0001732600    0.0001216400   -0.0003033700
   0.0000738900   -0.0004400100   -0.0002789700
   0.0000772300   -0.0004400400   -0.0002773800
   0.0000897800    0.0000186200   -0.0002499200
   0.0001014800    0.0000267200   -0.0002433800
   0.0004794600   -0.0006802700    0.0000739000
   0.0004903100   -0.0006695500    0.0000769800
   0.0004682100   -0.0000125200    0.0000876600
   0.0004744800   -0.0000228300    0.0000888800
   0.0005465700   -0.0002922400    0.0001002300
   0.0008917100   -0.0003443600   -0.0002967800
   0.0004686200   -0.0006817100    0.0000713000
   0.0004813300   -0.0006815500    0.0000802000
   0.0004677000   -0.0000104000    0.0000887800
   0.0004742500   -0.0000132000    0.0000908000
   0.0005513400   -0.0002833000    0.0001032400
   0.0005413600   -0.0001255700    0.0000664300
   0.0001072300   -0.0003105500    0.0000175000
   0.0001115100   -0.0003160500    0.0000240500
   0.0001135100    0.0002862100    0.0000579400
   0.0001156400    0.0002862100    0.0000575500
  -0.0000338100   -0.0002352200    0.0001549200
  -0.0000172300   -0.0002611800    0.0001733200
   0.0001159200   -0.0003092100   -0.0000000100
   0.0001218400   -0.0003106600   -0.0000116800
   0.0001137400    0.0002874300    0.0000542700
   0.0001107800    0.0002870100    0.0000495200
  -0.0000198700   -0.0002499000    0.0001541500
   0.0000134200   -0.0004382000    0.0003178300
  -0.0000741300   -0.0002612500   -0.0000620600
  -0.0000849200   -0.0002577300   -0.0000593700
  -0.0001161200    0.0003608200   -0.0000147100
  -0.0001264700    0.0003574000   -0.0000233800
  -0.0001754800   -0.0000964900    0.0000596500
  -0.0002037000   -0.0000268900    0.0000474100
  -0.0000794900   -0.0002584300   -0.0000576200
  -0.0000845200   -0.0002619400   -0.0000637000
  -0.0001121100    0.0003608700   -0.0000139700
  -0.0001240800    0.0003599800   -0.0000179900
  -0.0001511900   -0.0000327600    0.0000570200
  -0.0001930300   -0.0000290500    0.0000561400
   0.0002759700   -0.0001315600   -0.0004366100
   0.0002821600   -0.0001495500   -0.0004446100
   0.0002070700   -0.0000142700   -0.0003854600
   0.0002022600   -0.0000201700   -0.0003851600
   0.0007269300    0.0000587100   -0.0004109100
   0.0001618200    0.0004357700   -0.0004131500
   0.0002702300   -0.0001160500   -0.0004392500
   0.0002708100   -0.0001087800   -0.0004506400
   0.0002054600   -0.0000132200   -0.0003868300
   0.0002027900   -0.0000151900   -0.0003890000
   0.0001815500    0.0004475000   -0.0004090700
   0.0001771200    0.0004521600   -0.0004277900
  -0.0003858800    0.0000545500   -0.0001042700
  -0.0003555800    0.0000763900   -0.0001050700
  -0.0004524100   -0.0002069300   -0.0001128200
  -0.0004530700   -0.0002061300   -0.0001144400
  -0.0003840400   -0.0005888700   -0.0000899100
  -0.0003906500   -0.0006139900   -0.0000872100
  -0.0003737400    0.0000615800   -0.0000902000
  -0.0003351100    0.0000225500   -0.0001180300
  -0.0004557800   -0.0002082000   -0.0001138800
  -0.0004562300   -0.0002058700   -0.0001144000
  -0.0003812400   -0.0006023100   -0.0000829700
  -0.0003730600   -0.0006030700   -0.0000863100
  -0.0000648700    0.0002561900   -0.0000069300
   0.0002686700   -0.0002650500    0.0001596700
   0.0000727700   -0.0002790500   -0.0001123300
   0.0000795100   -0.0002752500   -0.0001029000
  -0.0000501300   -0.0003464100    0.0000350900
  -0.0000761700   -0.0003629400    0.0000342600
  -0.0000585000    0.0002531400   -0.0000172300
  -0.0000691100    0.0002763200    0.0000185400
   0.0000687600   -0.0002822100   -0.0001214500
   0.0000755900   -0.0002797200   -0.0001180600
  -0.0000616500   -0.0003503600    0.0000410400
  -0.0000624600   -0.0003456500    0.0000327400
   0.0005397900    0.0007773800    0.0003093900
   0.0004747800    0.0007943800    0.0003822000
   0.0005689200    0.0004123800    0.0004119100
   0.0005647500    0.0004068500    0.0004116400
   0.0004903200    0.0000795400    0.0004831900
   0.0004675000    0.0001303500    0.0003956200
   0.0004928000    0.0007885400    0.0003866600
   0.0004750700    0.0007767000    0.0003926400
   0.0005678800    0.0004054500    0.0004127800
   0.0005641500    0.0004032500    0.0004141200
   0.0004882500    0.0001311100    0.0003994300
   0.0004717500    0.0001307000    0.0004002600
   0.0000985200    0.0002834500    0.0000958400
   0.0001128300    0.0002604900    0.0000823500
  -0.0000160500    0.0001938900    0.0002330400
  -0.0000248100    0.0001899600    0.0002292500
   0.0003060800   -0.0002569700   -0.0000302100
   0.0001058800   -0.0003489000    0.0001274100
   0.0001171000    0.0002632400    0.0000803000
   0.0001212200    0.0002596000    0.0000950900
  -0.0000201000    0.0001923400    0.0002299400
  -0.0000245100    0.0001876100    0.0002250600
   0.0000835000   -0.0003374000    0.0001342200
   0.0000958000   -0.0003550900    0.0001120400
   0.0003436500   -0.0000218800   -0.0000061400
   0.0003415400   -0.0000418900    0.0000111000
   0.0002695300   -0.0004326400    0.0000765000
   0.0002795200   -0.0004289300    0.0000841400
   0.0002362300    0.0001918800    0.0001353700
   0.0002416100    0.0001929000    0.0001249800
   0.0003373100   -0.0000427000    0.0000087900
   0.0004192000   -0.0001620700    0.0003932800
   0.0002765000   -0.0004294200    0.0000832500
   0.0002852100   -0.0004245100    0.0000874200
   0.0002397200    0.0001917000    0.0001262900
   0.0002449300    0.0001909500    0.0001274900
  -0.0002625400   -0.0001429800    0.0007709200
  -0.0000578700   -0.0003779500    0.0004348200
  -0.0000750500    0.0000840300    0.0004101800
  -0.0000756800    0.0000894200    0.0004065800
  -0.0001364900    0.0001869000    0.0004602700
  -0.0001478200    0.0001912800    0.0004622400
  -0.0000551300   -0.0003647000    0.0004312400
  -0.0000348700   -0.0003325700    0.0004888700
  -0.0000778900    0.0000897900    0.0004022300
  -0.0000771800    0.0000941900    0.0003982200
  -0.0001422800    0.0001974600    0.0004587200
  -0.0001497700    0.0001998500    0.0004622400

1    
 -0.0099997518688487  -0.0000000355572213  -0.0000704454412494
   0.2860195800    0.1794979900   -0.1641994600
  -0.0002510600   -0.0000525600   -0.0006595600
  -0.0002928300   -0.0010600000   -0.0006703900
  -0.0002933000   -0.0010172500   -0.0006384700
  -0.0000564900   -0.0005183100   -0.0003180900
  -0.0000564100   -0.0005321500   -0.0003626000
  -0.0002744000   -0.0000859800   -0.0006538400
  -0.0002690500   -0.0000497200   -0.0006351600
  -0.0002878600   -0.0010137000   -0.0006216300
  -0.0002980600   -0.0010047600   -0.0006260500
  -0.0000507800   -0.0005296500   -0.0003539300
  -0.0000611800   -0.0005275700   -0.0003527300
  -0.1465437600   -0.1111031600    0.0796491800
   0.0004009200   -0.0012310700    0.0009076900
   0.0005891800    0.0001424800    0.0008981000
   0.0005545000    0.0000951000    0.0008971100
   0.0002579800   -0.0005467500    0.0009215600
   0.0003573700   -0.0005185100    0.0009709200
   0.0004177100   -0.0012511200    0.0008977800
   0.0004046300   -0.0012347000    0.0008972900
   0.0005619900    0.0000956800    0.0009065000
   0.0005519900    0.0000858300    0.0008970900
   0.0003607600   -0.0005413500    0.0009690600
   0.0003564500   -0.0005268100    0.0009648100
  -0.0067021000    0.0009793100    0.0342633100
   0.0004211900   -0.0002134500   -0.0007067900
   0.0005785700    0.0003765400   -0.0008034600
   0.0005685900    0.0003467500   -0.0008151600
   0.0005200300   -0.0007348800   -0.0008693700
   0.0004859800   -0.0007776600   -0.0008342400
   0.0003945500   -0.0002196200   -0.0006420200
   0.0004201700   -0.0002067700   -0.0006856600
   0.0005710400    0.0003525300   -0.0008090600
   0.0005704400    0.0003486700   -0.0008102000
   0.0004876500   -0.0007632000   -0.0008247000
   0.0004850700   -0.0007729300   -0.0008266300
  -0.0008530900   -0.0009681000    0.0011196700
  -0.0008358100   -0.0009292700    0.0011560600
  -0.0005631900   -0.0007982900    0.0011066400
  -0.0005728900   -0.0008081800    0.0010977700
  -0.0008076400   -0.0002855000    0.0011427300
  -0.0008134800   -0.0002594800    0.0011411400
   0.0090549800    0.0015124600   -0.0057889300
  -0.0008429200   -0.0009100500    0.0011669200
  -0.0005585000   -0.0007963500    0.0010930300
  -0.0005760500   -0.0008059500    0.0010947200
  -0.0007269100   -0.0002409300    0.0011296500
  -0.0008080700   -0.0002475300    0.0011448700
  -0.0004850300   -0.0006490100   -0.0010386500
  -0.0005037000   -0.0006017700   -0.0010533100
  -0.0006370100   -0.0010829400   -0.0011153600
  -0.0006407800   -0.0010802600   -0.0011244200
  -0.0006691300   -0.0003264600   -0.0011950200
  -0.0007077300   -0.0003375700   -0.0011938400
  -0.0005555200    0.0052283000    0.0058691000
  -0.0005252900   -0.0006177200   -0.0010591800
  -0.0006297700   -0.0010659300   -0.0011154800
  -0.0006477200   -0.0010770500   -0.0011274600
  -0.0007065800   -0.0003634200   -0.0011742200
  -0.0007102900   -0.0003436600   -0.0011934800
   0.0010197700    0.0000820000   -0.0011756400
   0.0009584600    0.0000335600   -0.0013249700
   0.0007800400    0.0006119200   -0.0011350500
   0.0007837800    0.0006184200   -0.0011355900
   0.0010421100    0.0007433000   -0.0011918400
   0.0198910100    0.0068936700   -0.0225158700
   0.0010258200    0.0001038700   -0.0011644900
   0.0010189200    0.0000670800   -0.0011708800
   0.0007810200    0.0006144000   -0.0011328500
   0.0007853500    0.0006179400   -0.0011287100
   0.0010363600    0.0007418100   -0.0011940100
   0.0010780600    0.0007706000   -0.0011825600
   0.0007354500    0.0004283000    0.0015189200
   0.0007200600    0.0004740100    0.0015702000
   0.0006703000    0.0011609600    0.0014593800
   0.0006945200    0.0011624700    0.0014661000
   0.0005389000    0.0007025800    0.0013775900
  -0.0884743700   -0.0571238600    0.0078082500
   0.0007203000    0.0004134700    0.0015128600
   0.0007395100    0.0004185900    0.0015243200
   0.0006692000    0.0011609100    0.0014566200
   0.0006703800    0.0011566800    0.0014628000
   0.0005315200    0.0007051000    0.0013765800
   0.0005220600    0.0006961000    0.0014213900
   0.0002059900    0.0006934900    0.0004018800
   0.0002223300    0.0006932300    0.0003930700
   0.0004406400    0.0011851800    0.0006798500
   0.0004453900    0.0011789700    0.0006934300
   0.0003997700    0.0002303000    0.0006850400
   0.0002387000    0.0000521100    0.0005852700
   0.0001901500    0.0007002700    0.0004204700
   0.0002019600    0.0006863500    0.0004040100
   0.0004374100    0.0011885500    0.0006889700
   0.0004213800    0.0011688000    0.0006740900
   0.0003935600    0.0002360700    0.0007169100
  -0.0032188200   -0.0067897400    0.0015148700
  -0.0000867500    0.0004231100   -0.0008235900
  -0.0000908300    0.0003837900   -0.0008295900
  -0.0002887000   -0.0002237800   -0.0007702500
  -0.0002855900   -0.0002243200   -0.0007675900
  -0.0001498300    0.0011259300   -0.0007752900
  -0.0001411200    0.0012603200   -0.0007271100
  -0.0000890300    0.0004148200   -0.0008380300
  -0.0000798100    0.0004309000   -0.0008636200
  -0.0002901800   -0.0002274500   -0.0007744400
  -0.0002750500   -0.0002210500   -0.0007885500
  -0.0001423800    0.0011101000   -0.0007735400
   0.0022585500    0.0018609900   -0.0073990400
  -0.0002581200    0.0008183900    0.0009676000
  -0.0002540800    0.0008400800    0.0009757400
  -0.0003422300   -0.0002906000    0.0009644300
  -0.0003437700   -0.0002890900    0.0009642300
  -0.0002049200    0.0002668900    0.0008543400
  -0.0002106500    0.0002463800    0.0008917300
  -0.0002616600    0.0008292500    0.0009843900
  -0.0002830500    0.0008673300    0.0010645400
  -0.0003418300   -0.0002878400    0.0009685200
  -0.0003442500   -0.0002710700    0.0009953600
  -0.0001934600    0.0002713800    0.0008452300
  -0.0155533700   -0.0115835800    0.0064573000
   0.0006081300   -0.0003071800   -0.0012292900
   0.0005669000   -0.0002683700   -0.0011744300
   0.0006296000   -0.0009900100   -0.0012054800
   0.0006187300   -0.0009866100   -0.0012114700
   0.0003285000   -0.0009713100   -0.0009640200
   0.0003762600   -0.0008006500   -0.0010603500
   0.0005644700   -0.0002881800   -0.0011900900
   0.0006015100   -0.0003360600   -0.0011795800
   0.0006316100   -0.0009925900   -0.0012054200
   0.0006236400   -0.0009922800   -0.0012083400
   0.0003687900   -0.0008414700   -0.0011456500
   0.0003629700   -0.0008668100   -0.0011484900
   0.0005122900   -0.0004413900    0.0010761200
   0.0005646900   -0.0003810900    0.0010730300
   0.0003568000   -0.0007050300    0.0009141600
   0.0003462100   -0.0007041100    0.0009137800
   0.0005740400   -0.0013868800    0.0007080500
   0.0004867200   -0.0012312700    0.0009830200
   0.0005752100   -0.0004473200    0.0010040400
   0.0005207300   -0.0004166000    0.0010731900
   0.0003531800   -0.0007035200    0.0009158600
   0.0003484800   -0.0007039400    0.0009125300
   0.0004912000   -0.0011680400    0.0009817400
   0.0004680500   -0.0011496300    0.0009867500
  -0.0004310200    0.0011425500   -0.0007852300
  -0.0004317300    0.0011639000   -0.0009149900
  -0.0003807000    0.0001621400   -0.0007916700
  -0.0003804600    0.0001650600   -0.0007976500
  -0.0002057400    0.0007136800   -0.0004353600
  -0.0002033600    0.0005892400   -0.0006126500
  -0.0004095400    0.0010933300   -0.0007954500
  -0.0004092600    0.0010898900   -0.0007693800
  -0.0003877800    0.0001592700   -0.0007861300
  -0.0003876900    0.0001594000   -0.0007843100
  -0.0001830900    0.0006291900   -0.0005098800
  -0.0001826500    0.0006271300   -0.0004870300
   0.0002920800   -0.0002303900    0.0007829300
  -0.0002698300   -0.0004289700    0.0007650800
   0.0001210800    0.0011336700    0.0008021700
   0.0001333900    0.0011184700    0.0008143000
   0.0001189900    0.0004235500    0.0008089700
  -0.0000365200    0.0004435900    0.0008155900
   0.0002865700   -0.0002481200    0.0008252200
   0.0002647800   -0.0001854900    0.0008022100
   0.0001164800    0.0011344600    0.0007937800
   0.0001225300    0.0011295100    0.0007991800
   0.0000606700    0.0004297100    0.0008715500
   0.0000697400    0.0004241300    0.0008670600
   0.0003931800   -0.0002786100   -0.0009367200
   0.0002824700   -0.0002146100   -0.0008436800
   0.0002599500    0.0002833200   -0.0008228400
   0.0002625900    0.0002904500   -0.0008289700
   0.0003046800    0.0008418800   -0.0009092100
   0.0002746500    0.0008339700   -0.0008155900
   0.0004559700   -0.0002348800   -0.0009139600
   0.0004251400   -0.0002912700   -0.0009479600
   0.0002575000    0.0002787700   -0.0008149000
   0.0002599300    0.0002832100   -0.0008188400
   0.0003276400    0.0008442700   -0.0010036700
   0.0003233300    0.0008437600   -0.0009563700
   0.0000001000   -0.0003994000    0.0002577200
   0.0000452200   -0.0005141500    0.0004448000
   0.0002541700   -0.0000407700    0.0007406400
   0.0002481700   -0.0000462700    0.0007428800
   0.0002345800   -0.0009343700    0.0007290100
   0.0002821200   -0.0010065300    0.0007182200
   0.0000345400   -0.0005048900    0.0004603800
   0.0000327300   -0.0004165200    0.0004481200
   0.0002506500   -0.0000488500    0.0007475100