  36  432
1 1
    28.953593380570744    18.090608567420002   -17.056939048554391
    18.090608567420002    51.558230797034291     6.602997148215801
   -17.056939048554391     6.602997148215801    61.990334661463208
1 2
    -0.000143167179548     0.000082263523630    -0.001070277312714
     0.000082263523630     0.000320441661234     0.000680481148397
    -0.001070277312714     0.000680481148397     0.001299114960716
1 3
    -0.000290663627734    -0.004470309514621    -0.003793950896871
     0.001261371574826     0.005806839073903     0.005150230581071
     0.003808664884530     0.009060207075538     0.004662401309276
1 4
    -0.000288339459867    -0.000166381548082    -0.000619613289741
    -0.000172695368241    -0.000057808167529     0.000246859971768
    -0.000608742615957     0.000572486689490     0.000942913065402
1 5
    -0.000290663627734     0.001261371574826     0.003808664884530
    -0.004470309514621     0.005806839073903     0.009060207075538
    -0.003793950896871     0.005150230581071     0.004662401309276
1 6
    -0.000288339459867    -0.000172695368241    -0.000608742615957
    -0.000166381548082    -0.000057808167529     0.000572486689490
    -0.000619613289741     0.000246859971768     0.000942913065402
1 7
    -0.002430447078710    -0.003167796807423    -0.000474780548517
    -0.003167796807423    -0.004278024290247    -0.000873398265770
    -0.000474780548517    -0.000873398265770     0.008276149566038
1 8
    -0.001999388480000     0.000387986390149     0.001392821690281
     0.000387986390149    -0.000291594579330    -0.001020381357257
     0.001392821690281    -0.001020381357257    -0.002347328418333
1 9
     0.000250647487772     0.000203974989161     0.001123107626224
     0.000105305916425    -0.000267080390686    -0.000537792042426
     0.000286824062349    -0.000436805005207    -0.001625452743744
1 10
    -0.000791964321446     0.001131764161864     0.000681602898170
     0.000318120403676    -0.000435341339552    -0.000340512484691
     0.000406913721525    -0.000661570132427    -0.001110200500486
1 11
     0.000250647487772     0.000105305916425     0.000286824062349
     0.000203974989161    -0.000267080390686    -0.000436805005207
     0.001123107626224    -0.000537792042426    -0.001625452743744
1 12
    -0.000791964321446     0.000318120403676     0.000406913721525
     0.001131764161864    -0.000435341339552    -0.000661570132427
     0.000681602898170    -0.000340512484691    -0.001110200500486
1 13
   -14.860193057576147   -11.281834419253357     8.213723192468478
    -9.628818919646616   -19.374373747930022     5.571995379878341
    10.265081575421574     9.490095966629347   -18.186374360272737
1 14
    -0.000672547719608     0.001442155975853     0.000478087093571
     0.000219167495605    -0.000590729772777     0.000121714092072
     0.000035491723176     0.000242178374643    -0.000013572022727
1 15
     0.003072399625252     0.004663841064668    -0.000503614598648
    -0.002307201477194    -0.001882019608255     0.000967722852516
    -0.004342558632599    -0.004453456158060     0.002297924966539
1 16
    -0.000409955954037    -0.000122390097365    -0.000603866653892
     0.000224270224979     0.000068776979211     0.000040723299407
    -0.000311057758651    -0.000609440801657    -0.000369029913880
1 17
    -0.010164564536414    -0.001624267865639    -0.004743432862114
    -0.017203044581401    -0.002966996457121    -0.016680555986715
    -0.014633095739414    -0.006418849008260    -0.010507760316754
1 18
    -0.000202535652911     0.001289708298449     0.000196524644809
     0.000077654586495    -0.000648493455278    -0.000419356025938
     0.000694007905064    -0.001047156777024    -0.000757823603742
1 19
     0.001072940913182    -0.000471294516787    -0.000495150208137
     0.000471617854230     0.000668690578617    -0.001355230155041
    -0.002310296468058    -0.008938235652214    -0.003390223895720
1 20
    -0.000289123801196     0.001124148881875    -0.000588002185609
    -0.000314783347354    -0.000035970121783     0.000366521691299
    -0.000057561908804     0.000076731920957     0.000295496792858
1 21
     0.000333599060712    -0.000090053037271     0.000339441068672
     0.000243641751180     0.000451790611212     0.000291101237849
     0.000080188255328     0.000717660165263     0.000097608389243
1 22
    -0.000689415450857    -0.001070936141547    -0.000623226854187
     0.000319346142649     0.000245047056024     0.000231463073193
     0.000123585536042     0.000541305456245     0.000111170706361
1 23
     0.000120200618080    -0.000963429913957    -0.000031374487950
    -0.000031104599833     0.000574064556985     0.000712215253031
     0.001767770270018     0.001736242733828     0.001644813036877
1 24
    -0.000318600044130     0.000502299461607    -0.000411173425259
     0.000349398797256    -0.000543966263735     0.000429597519020
     0.000036077110170     0.000541103491699     0.000792560308061
1 25
    -0.727931431744490     0.097919332349667     3.531020843155932
    -0.763176970521749     2.109669124566627     3.802167621953493
     2.371006628094751     1.665233503202633    -3.009011095800056
1 26
     0.000096931902782    -0.000897159498976    -0.001376920163789
     0.000034485176605     0.000578212162427     0.000622824772083
    -0.000231325719105    -0.000138863574494     0.000862630041441
1 27
     0.000938477593943     0.002681812026240     0.000898105926790
     0.000408887344049    -0.000681134476624    -0.003469596626569
    -0.000455727477256    -0.002658623653216    -0.003708007006511
1 28
    -0.000049478570789    -0.000314065014684    -0.000285045522529
    -0.000023947555657     0.000164457550235     0.000173862202406
    -0.000015761015226     0.000342557857956     0.000578541172783
1 29
     0.003463293719631     0.003723805035198    -0.004073650297615
     0.004983097511910     0.007457364657448    -0.006685196149319
     0.007976271878120     0.006442509896928    -0.009412017021940
1 30
     0.000053022846795    -0.000550046941095    -0.000535878402829
    -0.000157254925522     0.000666971905679     0.001180417123939
     0.000023361376306     0.000560960102316     0.001323054646656
1 31
    -0.002542290405387    -0.001486822438281     0.005000469460612
    -0.002517566797002    -0.004083721311035     0.002409342341494
     0.002818267939998     0.002176012572795     0.009789785701436
1 32
     0.000038298247803    -0.000219738733723     0.000780496130787
    -0.000048393603373     0.000636188423296    -0.000218868175077
    -0.000520313733771    -0.001316379128671     0.000175273258989
1 33
     0.000185946373780     0.000267731382148     0.000337303312969
     0.000040726303379    -0.000207054773722    -0.000299548958423
     0.000237138764040     0.000127587939163     0.000144700321327
1 34
     0.000117721758609    -0.000121181033206     0.000239519507421
     0.000109007154497    -0.000043300852734    -0.000169118610592
    -0.000019603679028     0.000096903324947    -0.000342414822066
1 35
     0.000201069730378     0.000931295422172     0.000474821052063
     0.000269040215765    -0.000434841522086    -0.001237856404947
     0.000201285092889    -0.002096524700031    -0.001894359330232
1 36
    -0.000054570660650    -0.000068117524817     0.000238978170961
     0.000096724641033    -0.000122058168549    -0.000439939454976
     0.000198257203497    -0.000409472982054    -0.000583700891622
1 37
    -0.001655902283394    -0.003328337433434    -0.003974506136032
     0.003922746150208     0.003286333066798    -0.007584907622739
    -0.014902748686628    -0.022947584220155    -0.009451132106866
1 38
    -0.000164616181021     0.000359144277466    -0.000576049657340
    -0.000171950829773     0.000590110865493     0.000255908433672
    -0.000302312053358    -0.000364265758943    -0.000105751626438
1 39
     0.000606265777925     0.000445922988197     0.000609395477223
     0.000223118055026     0.000195362989042     0.000114693830656
    -0.000256685933549     0.000524039186207    -0.000091720393082
1 40
    -0.000384760776470    -0.000533654444744    -0.000275258413935
     0.000205639196105     0.000043367434143     0.000106497453740
    -0.000285283968354    -0.000025114057632    -0.000315593145528
1 41
     0.000051696866126    -0.002245662412531    -0.000056985895047
    -0.000029415180820     0.001105187291788     0.000827652701062
     0.003479847172414     0.004928058425569     0.001639644357486
1 42
    -0.000504428481704     0.000377278100598    -0.000213091449851
     0.000247806875302    -0.000315128385139     0.000335999238272
    -0.000082118361887     0.001193186819639     0.000611010530505
1 43
     0.987638404116077     0.249634777165158    -0.696722825247715
     0.755460984143066     0.626693854345064    -1.779655263228624
    -0.043415149352874    -0.529800113710698    -0.050048517032011
1 44
    -0.000801029857130     0.002280509768776     0.000573050405482
     0.000293854484124    -0.000454911302088     0.000279676176803
     0.000952707465341    -0.000371246403656     0.000164851572741
1 45
     0.001088749094496     0.000687689224895    -0.000765449208527
     0.000565326329771     0.001678112149548     0.000480354117537
    -0.000293131930497     0.000634836958250     0.000606414487630
1 46
    -0.000686423625577    -0.000302537637789    -0.000589403949644
     0.000290803039370    -0.000144886177525     0.000061366332163
    -0.000073385826742    -0.000068741139710     0.000038165486139
1 47
     0.008236076713618     0.002307807484257    -0.001282566471983
     0.006218695258190     0.001321238341143    -0.001098294537260
     0.001081384943256    -0.003871386618091     0.002994605816064
1 48
     0.000033372962790     0.001531006486504     0.000180256675552
     0.000810723775743    -0.001588182624958    -0.000760587086877
     0.000406194042509    -0.001934303133216    -0.000507940266815
1 49
     0.002482125327389    -0.003964268554494     0.000900016433339
    -0.012358634140906    -0.013072923899002     0.005366937235017
    -0.003570433089302     0.058392730061627    -0.002207351384358
1 50
     0.000587757123484     0.001568605050823    -0.000538444859815
    -0.000936700955854    -0.001264636837474    -0.000058370772364
     0.000085935915317     0.001905900278126    -0.000610328666346
1 51
     0.000388106177327    -0.000362720763878     0.000790171292911
     0.000225401746662    -0.000073403040240    -0.000302847841399
    -0.001033633993798    -0.000462778250226    -0.000027488460656
1 52
    -0.000024928900833    -0.000145675106615    -0.000107387906745
     0.000122656626092    -0.000121392361478    -0.000023967544408
    -0.000260983871717     0.000584651411074    -0.000427681070010
1 53
     0.003430050539669     0.001571364370475    -0.000545398957283
     0.000555208312141     0.000310255364890    -0.001810237547284
    -0.005965476102653    -0.006759499819664     0.003296997550424
1 54
    -0.000429197866209     0.000425581368815    -0.000394171249447
     0.000045375592951    -0.000531652057971     0.000058814361657
    -0.000761037129291    -0.000050626444832    -0.000591158169914
1 55
    -0.006407159331357     0.585170439084391     0.695046870837230
     0.048291730772719     1.004849991819432     1.177364042436747
     0.021161657252909    -0.105226416459948    -0.206104729714273
1 56
    -0.001609211899944    -0.000098160000305    -0.001161219376638
     0.000365764467524    -0.000335647514390     0.000427478079041
     0.001671784897780    -0.000117443198590     0.000420374031414
1 57
     0.001081128738480     0.001331064543880     0.000800434892608
     0.000418866953568    -0.001267419103519     0.000844850667697
    -0.000454046942575    -0.001401767205241     0.000303386779093
1 58
    -0.000702110540584     0.000225250911334    -0.000437605268317
     0.000429964074127    -0.000077156248455     0.000037705306116
    -0.000155183867747    -0.000318094306622     0.000592679198821
1 59
    -0.000331522244517    -0.002177166400025     0.001534678372446
     0.000211059121327    -0.001885382385995    -0.000641156742027
     0.001775659104855     0.000260867128311     0.002750937383902
1 60
    -0.000705482629446    -0.000200231035173    -0.000372521587535
     0.001079052692658     0.000232100057909     0.000293315825704
     0.000950062602703     0.000392013594818     0.000311287560177
1 61
    -0.000161125842908     0.000789998437856    -0.000334518781075
     0.000124023671874    -0.000421641906490    -0.000077867754191
    -0.000046258502095     0.000414724545045     0.000468590131716
1 62
    -0.006421968300542    -0.004405353639077    -0.015314687171190
     0.002980004631671    -0.005137037065716    -0.009864370742216
     0.007806552641325    -0.007570157120277     0.005674973297680
1 63
    -0.000365077037065    -0.000259804392546    -0.000393649325761
     0.000190702774112     0.000174866422966     0.000087875866700
    -0.000076100924010     0.000142961011606    -0.000122690929492
1 64
    -0.000018338581231     0.000388301431674    -0.000464900637623
     0.001234419216829     0.002040614379658    -0.000964244986026
     0.000138441119001     0.002755648920330     0.002945731142068
1 65
    -0.000533796275138     0.000155471550468    -0.000171398789943
     0.000098525829012    -0.000158638421364     0.000481244645956
     0.000015109316654    -0.000425251259917     0.000154183542048
1 66
     1.893997624900867     0.639062600642593    -2.123119434870051
     1.639091354692409    -0.582501596559211    -5.770823571716296
    -0.771301141549181    -3.150462275171648    -1.420381511200718
1 67
     0.000448515664683     0.003083242220492     0.000824159122323
    -0.000046554028448    -0.000059683795724    -0.000498430116355
     0.000368808517699    -0.001611019077099    -0.000520667042796
1 68
    -0.000180492040042    -0.000667727589193     0.000185015855569
    -0.000611871715286    -0.000496632280783    -0.000471328208752
    -0.001557605704461    -0.000435662008309    -0.001101382876967
1 69
    -0.000273193364413     0.000005413129238    -0.000172840999090
     0.000543011381815     0.000170109319549     0.000424002465497
    -0.000266469423265    -0.000346729190182    -0.000159606549245
1 70
     0.000173612204359     0.000347121930668     0.000238877041864
    -0.000056684520578    -0.000363650462912    -0.000020022114754
    -0.000757275267014    -0.001258803943935    -0.000464409579443
1 71
    -0.001156659878160     0.000047872275064    -0.000410388820366
     0.000413017655939    -0.001166644781155    -0.000315147257330
     0.001176888840207    -0.000207928420344    -0.000171499595675
1 72
     0.002979983652654     0.002826133837455     0.000798477218761
     0.003168227451723     0.003771355375450    -0.000843312185732
     0.004291040570869     0.006174032310370     0.000056354658724
1 73
    -0.000046786394654     0.000673864355337    -0.000534332380766
    -0.000048760406040     0.000050348486032    -0.000049610918997
    -0.000298528520326     0.000297005807739    -0.000947545724337
1 74
    -0.001466764240346     0.005321679393211     0.004483942837204
     0.004836639450596    -0.000310811922719     0.004400755303009
    -0.001129870103210    -0.011764548630503     0.008223488207259
1 75
    -0.000301200655047     0.000106780612575     0.000044953109213
     0.000149035198189     0.000035102279094    -0.000057832009601
    -0.000243829121104     0.000328432130577    -0.000388205581029
1 76
     0.002066849160775     0.000231195452141     0.000718301276879
     0.002958135458649     0.000934790841325     0.000562233008312
    -0.002268848521803    -0.004044807388404    -0.000259917789633
1 77
    -0.000274222538674     0.000349138233452    -0.000510591548280
    -0.000194366387848    -0.000509897097138    -0.000009197045002
    -0.000217290095463     0.000284270116096    -0.000591485243207
1 78
    -8.928024118458797    -5.683001296989930     0.746136887372187
    -7.427096313181670   -22.941770699305472    -4.159478752889999
    -1.495757926977487    -8.401562713562402   -12.759444158068654
1 79
    -0.001599304828382    -0.000831496629559    -0.001201281257322
     0.000054402476467    -0.000044385716792     0.000122545955949
     0.000906460400567     0.000409325762043     0.000846211053456
1 80
     0.000366302785463    -0.000327248917594     0.000011956403556
    -0.000153887365489     0.000106607121562    -0.000149047801807
    -0.001056080794774     0.000206701310517     0.000488509694016
1 81
    -0.000449712737614     0.000087892947821    -0.000217468410720
     0.000650762081201    -0.000314154428287     0.000159349959928
    -0.000042936376062    -0.000129275880556     0.000266325754764
1 82
    -0.000298822487882    -0.000322466449807     0.000367277310448
     0.000127624763875    -0.000205891813853    -0.000009132353889
     0.000463783433942     0.000464443809250    -0.000660461979364
1 83
    -0.001073638834638     0.000633263752886    -0.000654222756803
     0.000529020443945    -0.000184646752263     0.000652237670008
     0.001956212982894     0.000662611201551     0.000028972618032
1 84
    -0.001927278044471    -0.000300577432886     0.003739579727493
    -0.002011701545618    -0.001067869268639     0.003409885945122
    -0.001275706008848    -0.002688706665483     0.005928621022509
1 85
    -0.000071334769061    -0.000408786460119    -0.000829849510876
    -0.000408786460119     0.000042942326887     0.000176054140029
    -0.000829849510876     0.000176054140029     0.000642167128913
1 86
     0.001579102682571    -0.000429781031011    -0.001688755551948
    -0.000429781031011     0.000324458331025     0.001061472871326
    -0.001688755551948     0.001061472871326     0.001104201028617
1 87
    -0.000220293332968     0.000016346726501    -0.000566314314882
     0.000016346726501     0.000145441514993     0.000581078531009
    -0.000566314314882     0.000581078531009     0.000175841876238
1 88
     0.000237212988016    -0.000623866382480     0.000731388627027
    -0.000623866382480     0.000888478962631     0.001985283682854
     0.000731388627027     0.001985283682854    -0.001351158471062
1 89
    -0.000290140082783     0.000709347644005    -0.001952634510489
     0.000709347644005    -0.001677550631545     0.001745954493679
    -0.001952634510489     0.001745954493679    -0.000365040548658
1 90
    -0.015654396181834    -0.017240411558673    -0.012780365999360
    -0.017240411558673    -0.013288934648444    -0.010255406256831
    -0.012780365999360    -0.010255406256831    -0.002996422609884
1 91
    -0.001704969939996     0.000280659043953     0.001097657825345
     0.000280659043953    -0.000328577689450    -0.000225730273175
     0.001097657825345    -0.000225730273175    -0.001204373676780
1 92
    -0.000525893227130    -0.001101049452101    -0.000535938199249
    -0.001101049452101     0.002346991661966     0.002161964443236
    -0.000535938199249     0.002161964443236     0.001368829363517
1 93
    -0.000555179461823     0.000347735243145     0.000349975655627
     0.000347735243145    -0.001056083330390    -0.000454688484838
     0.000349975655627    -0.000454688484838    -0.000656280228151
1 94
    -0.002168402681145    -0.001591526915729    -0.001119523096485
    -0.001591526915729    -0.000726528550651     0.000524192223012
    -0.001119523096485     0.000524192223012     0.002313139533796
1 95
    -0.000948797309362     0.001227137404406     0.001380309260426
     0.001227137404406    -0.000550117341736    -0.001422151371656
     0.001380309260426    -0.001422151371656    -0.000806579200816
1 96
    -0.363354914146625    -0.703656488329447     0.080580783021449
    -0.703656488329447    -1.214850963491874     0.099857810146302
     0.080580783021449     0.099857810146302    -0.032102293932361
1 97
    -0.000104809447952     0.002210459943886     0.001037213593339
    -0.000504554553820     0.000312014615361    -0.000289054185344
     0.000720256102420     0.000112757392588    -0.000747535856064
1 98
    -0.000423155124868    -0.001697944357634     0.000490435411475
    -0.000509139129367    -0.000356957549717    -0.000762304618915
    -0.002190511456528    -0.000498009906938    -0.002239446324283
1 99
    -0.000191710595331    -0.000026540616093    -0.000208056059478
     0.000202430353069     0.000111779501873     0.000424431021199
    -0.000632619929170    -0.000654716482539    -0.000348089009416
1 100
     0.000133428160605    -0.000067296005171     0.000043967821532
    -0.000463106765641    -0.001174473435384    -0.000418391020037
    -0.000784032570733    -0.000876742232901    -0.000135293761908
1 101
    -0.001695081746108     0.000872685436926    -0.000700446808674
     0.002463597588836    -0.000787742161526    -0.000045928508733
    -0.001860808023711     0.000798509661132     0.000175319421584
1 102
    -0.000442069818990     0.014453322543105     0.004214360891587
     0.001354268858175     0.013085182426710    -0.004231088345679
     0.002418361790616     0.009160489051320    -0.004138661804710
1 103
    -0.000287056460715     0.001400249916040    -0.000442730308955
     0.000102149069533    -0.000258985059696     0.000012031138077
    -0.000020850738396    -0.000458041268868     0.000616309434896
1 104
     0.000620679635473     0.003026511061382    -0.003071061695840
    -0.005425612872288     0.001068236056854    -0.004626235741425
    -0.003754533702860    -0.003160335726273    -0.000712708900805
1 105
    -0.000328100860961    -0.000417134387986    -0.000634242338152
     0.000589466773410     0.000687787836808     0.000271816975713
     0.000189173368127     0.000429994667948     0.000258647078178
1 106
     0.001145837754519     0.000207838954330    -0.002060553078975
     0.000448709734794     0.000282759671518    -0.000994699984672
    -0.000268142786463    -0.000912591338639    -0.000635299845574
1 107
    -0.000765024452522    -0.000677777096230    -0.000510450737104
     0.000173199509676    -0.000556961195632     0.000516401696052
     0.000972644459269    -0.000389503432673     0.000349307954469
1 108
     0.240568827380589     0.074868313550834    -0.665008477572710
     0.601381751065942     0.087362124432294    -1.203178719310305
    -0.008280317357045     0.033255991537623    -0.006780871290185
1 109
     0.000156820075728    -0.001462305862988    -0.001569108178036
    -0.000235078608291     0.000206474199237     0.000484933154805
    -0.000512828657753     0.000442312287150     0.001865664538803
1 110
     0.000564075171863     0.000707614640286    -0.000684922286579
    -0.000193295706636     0.000271959462436     0.000412496612404
     0.000250911577781     0.001196859764874     0.000192272372922
1 111
     0.000139378343165    -0.000138008641528    -0.000162338280078
     0.000017295986471     0.000068954681917     0.000102712241212
     0.000008667653188     0.000291300026945     0.000580809758973
1 112
    -0.000008972151570     0.000018621677554    -0.000188302262485
    -0.000062440490414    -0.000162293242155    -0.000042651596259
     0.000128614613338     0.000740461447327     0.000187682018495
1 113
    -0.000869102046390    -0.000731898745524     0.001035155937148
     0.000589976749801     0.000330439961841    -0.000659473240966
    -0.001128286213506    -0.000545146928799     0.002830999243701
1 114
    -0.001312856320540    -0.002660125211922     0.004527304982783
    -0.000513784176268    -0.002241275742853     0.005725098316528
    -0.004106177119369    -0.006353423871296     0.007373801937918
1 115
    -0.000203465071033    -0.000349356616661     0.000191849504832
     0.000037199387336     0.000139955786421     0.000056064257654
     0.000529402250088     0.000236720361887    -0.000547689010895
1 116
    -0.002368874873366     0.003558940597919     0.008278679141276
     0.006740571561918     0.007503838123546    -0.004796709561915
     0.008119966340964     0.003002985777485    -0.012241886311291
1 117
     0.000194299008251     0.000134976512817     0.000241648687007
    -0.000074949567880     0.000089198476107    -0.000182489154601
    -0.000087790249533     0.000079105700782    -0.000222501906502
1 118
    -0.000092573704804     0.001795834331074     0.002913916249452
    -0.000280178281988    -0.001745521958266     0.002032375671302
     0.002084651385799     0.002704550395729     0.001565515013556
1 119
     0.000293542106683    -0.000260146352189     0.000115653722252
     0.000285506712819     0.000179942867512    -0.000381311208948
     0.000117754350196    -0.000375846153701    -0.000360410013610
1 120
    -1.535652547928173    -1.188024767157106     0.562055659970521
    -1.663466109130042    -2.540757494081045     1.663740866894064
    -0.081315954750453     0.459725566068955     0.072583920294820
1 121
     0.000936728189923     0.001094327853223    -0.004062406608656
     0.003202646393316     0.000099602109121    -0.016314494053307
     0.004324279712409    -0.001972368108700    -0.006142195943211
1 122
    -0.003265045281829     0.005033276696999     0.001303613449157
     0.003253571758782    -0.002570875837441    -0.002642523187105
     0.001651048684956    -0.001549540643173    -0.001849275338953
1 123
     0.000491085051025    -0.000017705234604     0.000247784981572
    -0.000355686730063    -0.000501889641316     0.000084722243038
     0.000015496395749    -0.000316172011089     0.000212258660056
1 124
    -0.000580131947367     0.000312205478140    -0.000336350882186
     0.000486353986812    -0.000275395583797     0.000449989952177
     0.001081085141741    -0.000011200574272     0.000750306685105
1 125
    -0.003025784641505    -0.011135129413543     0.017833694298643
    -0.009251217614140    -0.014963118617661     0.010148680772898
    -0.001160704066711     0.019524789604637    -0.004811950588687
1 126
     0.001791433171260     0.005595577843539     0.008498386612550
     0.005393947080634     0.013541259983465     0.005052253669483
     0.000558041732023     0.002311731679845     0.001678824420201
1 127
    -0.003564826684591     0.003031131054583    -0.000182757014330
    -0.002537723609316     0.002308504629159     0.001933373135888
     0.005295079408027    -0.002424243417977    -0.001131124979294
1 128
     0.000232296692938    -0.001809544168887     0.000813067832548
     0.000279409700053    -0.000895034794689     0.000352085150079
    -0.000332460278255     0.001826041946468    -0.001435569164440
1 129
     0.000732426353985    -0.000322610356786     0.000276179137180
    -0.001030170582402     0.000587135014117    -0.000701838625234
    -0.000034976328923     0.000298862587378    -0.000205002463161
1 130
    -0.000097198294984    -0.000261665790173    -0.000020689258817
    -0.000248150172079     0.000241131770642    -0.000272180148124
    -0.000411643332057     0.000378319473339    -0.000303695584745
1 131
     0.001166659430473     0.001382290060414    -0.000198145232555
     0.001058677282431     0.000443026856739    -0.001821313842538
    -0.002787640584360     0.008441001136750    -0.003058174196669
1 132
     0.000517399852926    -0.001058042547740    -0.000423044277803
     0.000878307132498    -0.001877946179377     0.000095672819996
    -0.001256101448480    -0.003070255121787     0.001090925692084
1 133
    -0.002650954563434    -0.001399542396264     0.002144399938367
    -0.007598868722786    -0.005111345650549     0.005036302868527
    -0.013719051335627     0.005350816623921    -0.000828328072740
1 134
     0.002372330288085     0.004777079227445     0.001859169942146
    -0.000789605521098    -0.004035392948509     0.000874977258244
     0.002129417307797    -0.004643500406701    -0.001467995911438
1 135
     0.000693579081341    -0.000167536882376    -0.000040117543414
    -0.000558367278050    -0.000051144892018    -0.000354304884713
     0.000044737019428    -0.000142012035679    -0.000703499883900
1 136
    -0.000376044562723    -0.000053238314654    -0.000066814041953
    -0.000068951876122     0.000228368235762     0.000090880765581
     0.000602225985613     0.000482620302426    -0.000027045596460
1 137
     0.009874016151452    -0.022855281994225    -0.028101870937946
    -0.003686234918622    -0.012742638781203     0.010077777315183
     0.000846537458318    -0.019276362083390    -0.031699415015085
1 138
     0.000783131569201    -0.007192604914980    -0.000749437425184
     0.000077976413870    -0.006090663702021     0.014846491642055
    -0.007298725116976     0.014725452997994     0.001334471246665
1 139
     0.003522642146977    -0.001872853489957    -0.005235400871964
     0.000450680955462     0.002473628858167    -0.003647387365071
    -0.000092442050684     0.000398251318650     0.003480298501642
1 140
    -0.001949085264274     0.001212649722321     0.001739120852673
    -0.000973853156691     0.000449047135470     0.002361138252412
     0.001793263176974    -0.001893661842673    -0.001421442370229
1 141
     0.000332040759367     0.000006556926591     0.000137429470230
    -0.000108160406431    -0.000618650695466    -0.000138070628594
     0.000309465166667    -0.000096898008646    -0.000143527304071
1 142
    -0.000156759326556    -0.000033223311239    -0.000231603401281
     0.000051828148024    -0.000272900406361     0.000154755433900
     0.000127051192392    -0.000165235780903     0.000042007951650
1 143
     0.001311122069198    -0.000764632752374    -0.000701809883584
    -0.001136485404988     0.001626861239277     0.001773502648200
     0.001226810595827    -0.001455216888213     0.000922053637862
1 144
    -0.001067344192058     0.001047798313963    -0.000182592693243
    -0.003659260819363     0.001237083900676    -0.000813195191143
    -0.004899200186331    -0.000599395731644    -0.001500439563030
1 145
    -0.000791922883047     0.002431866392744    -0.001577058313286
    -0.004408278656202    -0.000099218357675     0.004638749214806
    -0.014565982296273    -0.006101803612896     0.004126788035213
1 146
    -0.000791937208125     0.004407785874813    -0.014565940586395