LAMMPS data file for mol object with MOF-FF params from www.mofplus.org

       972 atoms
      1026 bonds
      1620 angles
      2376 dihedrals
       540 impropers
         5 atom types
         6 bond types
         8 angle types
        12 dihedral types
         3 improper types

    0.000000    23.996616  xlo xhi
    0.000000    17.653059  ylo yhi
    0.000000    21.682461  zlo zhi
   -0.000087   -14.176893     0.000129  xy xz yz

Masses

    1    12.0107 # buck6d->(c3_c2h1@naph)|naphtalene/gaussian->(c3_c2h1@naph)|naphtalene
    2    12.0107 # buck6d->(c3_c2h1S@naph)|naphtalene/gaussian->(c3_c2h1S@naph)|naphtalene
    3    12.0107 # buck6d->(c3_c3@naph)|naphtalene/gaussian->(c3_c3@naph)|naphtalene
    4     1.0079 # buck6d->(h1_c1@naph)|naphtalene/gaussian->(h1_c1@naph)|naphtalene
    5     1.0079 # buck6d->(h1_c1S@naph)|naphtalene/gaussian->(h1_c1S@naph)|naphtalene

Atoms

         1     1     1   -0.13392    -0.816942     0.178881     2.328816 # buck6d->(c3_c2h1@naph)|naphtalene
         2     2     1   -0.13392     7.181930     0.178881     2.328816 # buck6d->(c3_c2h1@naph)|naphtalene
         3     3     1   -0.13392    15.180802     0.178881     2.328816 # buck6d->(c3_c2h1@naph)|naphtalene
         4     4     1   -0.13392    -0.816971     6.063234     2.328816 # buck6d->(c3_c2h1@naph)|naphtalene
         5     5     1   -0.13392     7.181901     6.063234     2.328816 # buck6d->(c3_c2h1@naph)|naphtalene
         6     6     1   -0.13392    15.180773     6.063234     2.328816 # buck6d->(c3_c2h1@naph)|naphtalene
         7     7     1   -0.13392    -0.817000    11.947587     2.328816 # buck6d->(c3_c2h1@naph)|naphtalene
         8     8     1   -0.13392     7.181872    11.947587     2.328816 # buck6d->(c3_c2h1@naph)|naphtalene
         9     9     1   -0.13392    15.180744    11.947587     2.328816 # buck6d->(c3_c2h1@naph)|naphtalene
        10    10     1   -0.13392    -5.542573     0.178924     9.556303 # buck6d->(c3_c2h1@naph)|naphtalene
        11    11     1   -0.13392     2.456299     0.178924     9.556303 # buck6d->(c3_c2h1@naph)|naphtalene
        12    12     1   -0.13392    10.455171     0.178924     9.556303 # buck6d->(c3_c2h1@naph)|naphtalene
        13    13     1   -0.13392    -5.542602     6.063277     9.556303 # buck6d->(c3_c2h1@naph)|naphtalene
        14    14     1   -0.13392     2.456270     6.063277     9.556303 # buck6d->(c3_c2h1@naph)|naphtalene
        15    15     1   -0.13392    10.455142     6.063277     9.556303 # buck6d->(c3_c2h1@naph)|naphtalene
        16    16     1   -0.13392    -5.542631    11.947630     9.556303 # buck6d->(c3_c2h1@naph)|naphtalene
        17    17     1   -0.13392     2.456241    11.947630     9.556303 # buck6d->(c3_c2h1@naph)|naphtalene
        18    18     1   -0.13392    10.455113    11.947630     9.556303 # buck6d->(c3_c2h1@naph)|naphtalene
        19    19     1   -0.13392   -10.268204     0.178967    16.783790 # buck6d->(c3_c2h1@naph)|naphtalene
        20    20     1   -0.13392    -2.269332     0.178967    16.783790 # buck6d->(c3_c2h1@naph)|naphtalene
        21    21     1   -0.13392     5.729540     0.178967    16.783790 # buck6d->(c3_c2h1@naph)|naphtalene
        22    22     1   -0.13392   -10.268233     6.063320    16.783790 # buck6d->(c3_c2h1@naph)|naphtalene
        23    23     1   -0.13392    -2.269361     6.063320    16.783790 # buck6d->(c3_c2h1@naph)|naphtalene
        24    24     1   -0.13392     5.729511     6.063320    16.783790 # buck6d->(c3_c2h1@naph)|naphtalene
        25    25     1   -0.13392   -10.268262    11.947673    16.783790 # buck6d->(c3_c2h1@naph)|naphtalene
        26    26     1   -0.13392    -2.269390    11.947673    16.783790 # buck6d->(c3_c2h1@naph)|naphtalene
        27    27     1   -0.13392     5.729482    11.947673    16.783790 # buck6d->(c3_c2h1@naph)|naphtalene
        28     1     2   -0.27148    -0.090020     1.024214     1.518791 # buck6d->(c3_c2h1S@naph)|naphtalene
        29     2     2   -0.27148     7.908852     1.024214     1.518791 # buck6d->(c3_c2h1S@naph)|naphtalene
        30     3     2   -0.27148    15.907724     1.024214     1.518791 # buck6d->(c3_c2h1S@naph)|naphtalene
        31     4     2   -0.27148    -0.090049     6.908567     1.518791 # buck6d->(c3_c2h1S@naph)|naphtalene
        32     5     2   -0.27148     7.908823     6.908567     1.518791 # buck6d->(c3_c2h1S@naph)|naphtalene
        33     6     2   -0.27148    15.907695     6.908567     1.518791 # buck6d->(c3_c2h1S@naph)|naphtalene
        34     7     2   -0.27148    -0.090078    12.792920     1.518791 # buck6d->(c3_c2h1S@naph)|naphtalene
        35     8     2   -0.27148     7.908794    12.792920     1.518791 # buck6d->(c3_c2h1S@naph)|naphtalene
        36     9     2   -0.27148    15.907666    12.792920     1.518791 # buck6d->(c3_c2h1S@naph)|naphtalene
        37    10     2   -0.27148    -4.815651     1.024257     8.746278 # buck6d->(c3_c2h1S@naph)|naphtalene
        38    11     2   -0.27148     3.183221     1.024257     8.746278 # buck6d->(c3_c2h1S@naph)|naphtalene
        39    12     2   -0.27148    11.182093     1.024257     8.746278 # buck6d->(c3_c2h1S@naph)|naphtalene
        40    13     2   -0.27148    -4.815680     6.908610     8.746278 # buck6d->(c3_c2h1S@naph)|naphtalene
        41    14     2   -0.27148     3.183192     6.908610     8.746278 # buck6d->(c3_c2h1S@naph)|naphtalene
        42    15     2   -0.27148    11.182064     6.908610     8.746278 # buck6d->(c3_c2h1S@naph)|naphtalene
        43    16     2   -0.27148    -4.815709    12.792963     8.746278 # buck6d->(c3_c2h1S@naph)|naphtalene
        44    17     2   -0.27148     3.183163    12.792963     8.746278 # buck6d->(c3_c2h1S@naph)|naphtalene
        45    18     2   -0.27148    11.182035    12.792963     8.746278 # buck6d->(c3_c2h1S@naph)|naphtalene
        46    19     2   -0.27148    -9.541282     1.024300    15.973765 # buck6d->(c3_c2h1S@naph)|naphtalene
        47    20     2   -0.27148    -1.542410     1.024300    15.973765 # buck6d->(c3_c2h1S@naph)|naphtalene
        48    21     2   -0.27148     6.456462     1.024300    15.973765 # buck6d->(c3_c2h1S@naph)|naphtalene
        49    22     2   -0.27148    -9.541311     6.908653    15.973765 # buck6d->(c3_c2h1S@naph)|naphtalene
        50    23     2   -0.27148    -1.542439     6.908653    15.973765 # buck6d->(c3_c2h1S@naph)|naphtalene
        51    24     2   -0.27148     6.456433     6.908653    15.973765 # buck6d->(c3_c2h1S@naph)|naphtalene
        52    25     2   -0.27148    -9.541340    12.793006    15.973765 # buck6d->(c3_c2h1S@naph)|naphtalene
        53    26     2   -0.27148    -1.542468    12.793006    15.973765 # buck6d->(c3_c2h1S@naph)|naphtalene
        54    27     2   -0.27148     6.456404    12.793006    15.973765 # buck6d->(c3_c2h1S@naph)|naphtalene
        55     1     3    0.22550     0.248665     0.651653     0.192910 # buck6d->(c3_c3@naph)|naphtalene
        56     2     3    0.22550     8.247537     0.651653     0.192910 # buck6d->(c3_c3@naph)|naphtalene
        57     3     3    0.22550    16.246409     0.651653     0.192910 # buck6d->(c3_c3@naph)|naphtalene
        58     4     3    0.22550     0.248636     6.536006     0.192910 # buck6d->(c3_c3@naph)|naphtalene
        59     5     3    0.22550     8.247508     6.536006     0.192910 # buck6d->(c3_c3@naph)|naphtalene
        60     6     3    0.22550    16.246380     6.536006     0.192910 # buck6d->(c3_c3@naph)|naphtalene
        61     7     3    0.22550     0.248607    12.420359     0.192910 # buck6d->(c3_c3@naph)|naphtalene
        62     8     3    0.22550     8.247479    12.420359     0.192910 # buck6d->(c3_c3@naph)|naphtalene
        63     9     3    0.22550    16.246351    12.420359     0.192910 # buck6d->(c3_c3@naph)|naphtalene
        64    10     3    0.22550    -4.476966     0.651696     7.420397 # buck6d->(c3_c3@naph)|naphtalene
        65    11     3    0.22550     3.521906     0.651696     7.420397 # buck6d->(c3_c3@naph)|naphtalene
        66    12     3    0.22550    11.520778     0.651696     7.420397 # buck6d->(c3_c3@naph)|naphtalene
        67    13     3    0.22550    -4.476995     6.536049     7.420397 # buck6d->(c3_c3@naph)|naphtalene
        68    14     3    0.22550     3.521877     6.536049     7.420397 # buck6d->(c3_c3@naph)|naphtalene
        69    15     3    0.22550    11.520749     6.536049     7.420397 # buck6d->(c3_c3@naph)|naphtalene
        70    16     3    0.22550    -4.477024    12.420402     7.420397 # buck6d->(c3_c3@naph)|naphtalene
        71    17     3    0.22550     3.521848    12.420402     7.420397 # buck6d->(c3_c3@naph)|naphtalene
        72    18     3    0.22550    11.520720    12.420402     7.420397 # buck6d->(c3_c3@naph)|naphtalene
        73    19     3    0.22550    -9.202597     0.651739    14.647884 # buck6d->(c3_c3@naph)|naphtalene
        74    20     3    0.22550    -1.203725     0.651739    14.647884 # buck6d->(c3_c3@naph)|naphtalene
        75    21     3    0.22550     6.795147     0.651739    14.647884 # buck6d->(c3_c3@naph)|naphtalene
        76    22     3    0.22550    -9.202626     6.536092    14.647884 # buck6d->(c3_c3@naph)|naphtalene
        77    23     3    0.22550    -1.203754     6.536092    14.647884 # buck6d->(c3_c3@naph)|naphtalene
        78    24     3    0.22550     6.795118     6.536092    14.647884 # buck6d->(c3_c3@naph)|naphtalene
        79    25     3    0.22550    -9.202655    12.420445    14.647884 # buck6d->(c3_c3@naph)|naphtalene
        80    26     3    0.22550    -1.203783    12.420445    14.647884 # buck6d->(c3_c3@naph)|naphtalene
        81    27     3    0.22550     6.795089    12.420445    14.647884 # buck6d->(c3_c3@naph)|naphtalene
        82    10     2   -0.27148    -3.740329     1.501587     6.557426 # buck6d->(c3_c2h1S@naph)|naphtalene
        83    11     2   -0.27148     4.258543     1.501587     6.557426 # buck6d->(c3_c2h1S@naph)|naphtalene
        84    12     2   -0.27148    12.257415     1.501587     6.557426 # buck6d->(c3_c2h1S@naph)|naphtalene
        85    13     2   -0.27148    -3.740358     7.385940     6.557426 # buck6d->(c3_c2h1S@naph)|naphtalene
        86    14     2   -0.27148     4.258514     7.385940     6.557426 # buck6d->(c3_c2h1S@naph)|naphtalene
        87    15     2   -0.27148    12.257386     7.385940     6.557426 # buck6d->(c3_c2h1S@naph)|naphtalene
        88    16     2   -0.27148    -3.740387    13.270293     6.557426 # buck6d->(c3_c2h1S@naph)|naphtalene
        89    17     2   -0.27148     4.258485    13.270293     6.557426 # buck6d->(c3_c2h1S@naph)|naphtalene
        90    18     2   -0.27148    12.257357    13.270293     6.557426 # buck6d->(c3_c2h1S@naph)|naphtalene
        91    19     2   -0.27148    -8.465960     1.501630    13.784913 # buck6d->(c3_c2h1S@naph)|naphtalene
        92    20     2   -0.27148    -0.467088     1.501630    13.784913 # buck6d->(c3_c2h1S@naph)|naphtalene
        93    21     2   -0.27148     7.531784     1.501630    13.784913 # buck6d->(c3_c2h1S@naph)|naphtalene
        94    22     2   -0.27148    -8.465989     7.385983    13.784913 # buck6d->(c3_c2h1S@naph)|naphtalene
        95    23     2   -0.27148    -0.467117     7.385983    13.784913 # buck6d->(c3_c2h1S@naph)|naphtalene
        96    24     2   -0.27148     7.531755     7.385983    13.784913 # buck6d->(c3_c2h1S@naph)|naphtalene
        97    25     2   -0.27148    -8.466018    13.270336    13.784913 # buck6d->(c3_c2h1S@naph)|naphtalene
        98    26     2   -0.27148    -0.467146    13.270336    13.784913 # buck6d->(c3_c2h1S@naph)|naphtalene
        99    27     2   -0.27148     7.531726    13.270336    13.784913 # buck6d->(c3_c2h1S@naph)|naphtalene
       100     1     2   -0.27148   -13.191591     1.501673    21.012400 # buck6d->(c3_c2h1S@naph)|naphtalene
       101     2     2   -0.27148    -5.192719     1.501673    21.012400 # buck6d->(c3_c2h1S@naph)|naphtalene
       102     3     2   -0.27148     2.806153     1.501673    21.012400 # buck6d->(c3_c2h1S@naph)|naphtalene
       103     4     2   -0.27148   -13.191620     7.386026    21.012400 # buck6d->(c3_c2h1S@naph)|naphtalene
       104     5     2   -0.27148    -5.192748     7.386026    21.012400 # buck6d->(c3_c2h1S@naph)|naphtalene
       105     6     2   -0.27148     2.806124     7.386026    21.012400 # buck6d->(c3_c2h1S@naph)|naphtalene
       106     7     2   -0.27148   -13.191649    13.270379    21.012400 # buck6d->(c3_c2h1S@naph)|naphtalene
       107     8     2   -0.27148    -5.192777    13.270379    21.012400 # buck6d->(c3_c2h1S@naph)|naphtalene
       108     9     2   -0.27148     2.806095    13.270379    21.012400 # buck6d->(c3_c2h1S@naph)|naphtalene
       109    10     1   -0.13392    -3.413513     1.106322     5.278443 # buck6d->(c3_c2h1@naph)|naphtalene
       110    11     1   -0.13392     4.585359     1.106322     5.278443 # buck6d->(c3_c2h1@naph)|naphtalene
       111    12     1   -0.13392    12.584231     1.106322     5.278443 # buck6d->(c3_c2h1@naph)|naphtalene
       112    13     1   -0.13392    -3.413542     6.990675     5.278443 # buck6d->(c3_c2h1@naph)|naphtalene
       113    14     1   -0.13392     4.585330     6.990675     5.278443 # buck6d->(c3_c2h1@naph)|naphtalene
       114    15     1   -0.13392    12.584202     6.990675     5.278443 # buck6d->(c3_c2h1@naph)|naphtalene
       115    16     1   -0.13392    -3.413571    12.875028     5.278443 # buck6d->(c3_c2h1@naph)|naphtalene
       116    17     1   -0.13392     4.585301    12.875028     5.278443 # buck6d->(c3_c2h1@naph)|naphtalene
       117    18     1   -0.13392    12.584173    12.875028     5.278443 # buck6d->(c3_c2h1@naph)|naphtalene
       118    19     1   -0.13392    -8.139144     1.106365    12.505930 # buck6d->(c3_c2h1@naph)|naphtalene
       119    20     1   -0.13392    -0.140272     1.106365    12.505930 # buck6d->(c3_c2h1@naph)|naphtalene
       120    21     1   -0.13392     7.858600     1.106365    12.505930 # buck6d->(c3_c2h1@naph)|naphtalene
       121    22     1   -0.13392    -8.139173     6.990718    12.505930 # buck6d->(c3_c2h1@naph)|naphtalene
       122    23     1   -0.13392    -0.140301     6.990718    12.505930 # buck6d->(c3_c2h1@naph)|naphtalene
       123    24     1   -0.13392     7.858571     6.990718    12.505930 # buck6d->(c3_c2h1@naph)|naphtalene
       124    25     1   -0.13392    -8.139202    12.875071    12.505930 # buck6d->(c3_c2h1@naph)|naphtalene
       125    26     1   -0.13392    -0.140330    12.875071    12.505930 # buck6d->(c3_c2h1@naph)|naphtalene
       126    27     1   -0.13392     7.858542    12.875071    12.505930 # buck6d->(c3_c2h1@naph)|naphtalene
       127     1     1   -0.13392   -12.864775     1.106408    19.733417 # buck6d->(c3_c2h1@naph)|naphtalene
       128     2     1   -0.13392    -4.865903     1.106408    19.733417 # buck6d->(c3_c2h1@naph)|naphtalene
       129     3     1   -0.13392     3.132969     1.106408    19.733417 # buck6d->(c3_c2h1@naph)|naphtalene
       130     4     1   -0.13392   -12.864804     6.990761    19.733417 # buck6d->(c3_c2h1@naph)|naphtalene
       131     5     1   -0.13392    -4.865932     6.990761    19.733417 # buck6d->(c3_c2h1@naph)|naphtalene
       132     6     1   -0.13392     3.132940     6.990761    19.733417 # buck6d->(c3_c2h1@naph)|naphtalene
       133     7     1   -0.13392   -12.864833    12.875114    19.733417 # buck6d->(c3_c2h1@naph)|naphtalene
       134     8     1   -0.13392    -4.865961    12.875114    19.733417 # buck6d->(c3_c2h1@naph)|naphtalene
       135     9     1   -0.13392     3.132911    12.875114    19.733417 # buck6d->(c3_c2h1@naph)|naphtalene
       136    28     1   -0.13392     0.173774     3.121070     4.799426 # buck6d->(c3_c2h1@naph)|naphtalene
       137    29     1   -0.13392     8.172646     3.121070     4.799426 # buck6d->(c3_c2h1@naph)|naphtalene
       138    30     1   -0.13392    16.171518     3.121070     4.799426 # buck6d->(c3_c2h1@naph)|naphtalene
       139    31     1   -0.13392     0.173745     9.005423     4.799426 # buck6d->(c3_c2h1@naph)|naphtalene
       140    32     1   -0.13392     8.172617     9.005423     4.799426 # buck6d->(c3_c2h1@naph)|naphtalene
       141    33     1   -0.13392    16.171489     9.005423     4.799426 # buck6d->(c3_c2h1@naph)|naphtalene
       142    34     1   -0.13392     0.173716    14.889776     4.799426 # buck6d->(c3_c2h1@naph)|naphtalene
       143    35     1   -0.13392     8.172588    14.889776     4.799426 # buck6d->(c3_c2h1@naph)|naphtalene
       144    36     1   -0.13392    16.171460    14.889776     4.799426 # buck6d->(c3_c2h1@naph)|naphtalene
       145    37     1   -0.13392    -4.551857     3.121113    12.026913 # buck6d->(c3_c2h1@naph)|naphtalene
       146    38     1   -0.13392     3.447015     3.121113    12.026913 # buck6d->(c3_c2h1@naph)|naphtalene
       147    39     1   -0.13392    11.445887     3.121113    12.026913 # buck6d->(c3_c2h1@naph)|naphtalene
       148    40     1   -0.13392    -4.551886     9.005466    12.026913 # buck6d->(c3_c2h1@naph)|naphtalene
       149    41     1   -0.13392     3.446986     9.005466    12.026913 # buck6d->(c3_c2h1@naph)|naphtalene
       150    42     1   -0.13392    11.445858     9.005466    12.026913 # buck6d->(c3_c2h1@naph)|naphtalene
       151    43     1   -0.13392    -4.551915    14.889819    12.026913 # buck6d->(c3_c2h1@naph)|naphtalene
       152    44     1   -0.13392     3.446957    14.889819    12.026913 # buck6d->(c3_c2h1@naph)|naphtalene
       153    45     1   -0.13392    11.445829    14.889819    12.026913 # buck6d->(c3_c2h1@naph)|naphtalene
       154    46     1   -0.13392    -9.277488     3.121156    19.254400 # buck6d->(c3_c2h1@naph)|naphtalene
       155    47     1   -0.13392    -1.278616     3.121156    19.254400 # buck6d->(c3_c2h1@naph)|naphtalene
       156    48     1   -0.13392     6.720256     3.121156    19.254400 # buck6d->(c3_c2h1@naph)|naphtalene
       157    49     1   -0.13392    -9.277517     9.005509    19.254400 # buck6d->(c3_c2h1@naph)|naphtalene
       158    50     1   -0.13392    -1.278645     9.005509    19.254400 # buck6d->(c3_c2h1@naph)|naphtalene
       159    51     1   -0.13392     6.720227     9.005509    19.254400 # buck6d->(c3_c2h1@naph)|naphtalene
       160    52     1   -0.13392    -9.277546    14.889862    19.254400 # buck6d->(c3_c2h1@naph)|naphtalene
       161    53     1   -0.13392    -1.278674    14.889862    19.254400 # buck6d->(c3_c2h1@naph)|naphtalene
       162    54     1   -0.13392     6.720198    14.889862    19.254400 # buck6d->(c3_c2h1@naph)|naphtalene
       163    28     2   -0.27148    -0.553151     3.966412     5.609439 # buck6d->(c3_c2h1S@naph)|naphtalene
       164    29     2   -0.27148     7.445721     3.966412     5.609439 # buck6d->(c3_c2h1S@naph)|naphtalene
       165    30     2   -0.27148    15.444593     3.966412     5.609439 # buck6d->(c3_c2h1S@naph)|naphtalene
       166    31     2   -0.27148    -0.553180     9.850765     5.609439 # buck6d->(c3_c2h1S@naph)|naphtalene
       167    32     2   -0.27148     7.445692     9.850765     5.609439 # buck6d->(c3_c2h1S@naph)|naphtalene
       168    33     2   -0.27148    15.444564     9.850765     5.609439 # buck6d->(c3_c2h1S@naph)|naphtalene
       169    34     2   -0.27148    -0.553209    15.735118     5.609439 # buck6d->(c3_c2h1S@naph)|naphtalene
       170    35     2   -0.27148     7.445663    15.735118     5.609439 # buck6d->(c3_c2h1S@naph)|naphtalene
       171    36     2   -0.27148    15.444535    15.735118     5.609439 # buck6d->(c3_c2h1S@naph)|naphtalene
       172    37     2   -0.27148    -5.278782     3.966455    12.836926 # buck6d->(c3_c2h1S@naph)|naphtalene
       173    38     2   -0.27148     2.720090     3.966455    12.836926 # buck6d->(c3_c2h1S@naph)|naphtalene
       174    39     2   -0.27148    10.718962     3.966455    12.836926 # buck6d->(c3_c2h1S@naph)|naphtalene
       175    40     2   -0.27148    -5.278811     9.850808    12.836926 # buck6d->(c3_c2h1S@naph)|naphtalene
       176    41     2   -0.27148     2.720061     9.850808    12.836926 # buck6d->(c3_c2h1S@naph)|naphtalene
       177    42     2   -0.27148    10.718933     9.850808    12.836926 # buck6d->(c3_c2h1S@naph)|naphtalene
       178    43     2   -0.27148    -5.278840    15.735161    12.836926 # buck6d->(c3_c2h1S@naph)|naphtalene
       179    44     2   -0.27148     2.720032    15.735161    12.836926 # buck6d->(c3_c2h1S@naph)|naphtalene
       180    45     2   -0.27148    10.718904    15.735161    12.836926 # buck6d->(c3_c2h1S@naph)|naphtalene
       181    46     2   -0.27148   -10.004413     3.966498    20.064413 # buck6d->(c3_c2h1S@naph)|naphtalene
       182    47     2   -0.27148    -2.005541     3.966498    20.064413 # buck6d->(c3_c2h1S@naph)|naphtalene
       183    48     2   -0.27148     5.993331     3.966498    20.064413 # buck6d->(c3_c2h1S@naph)|naphtalene
       184    49     2   -0.27148   -10.004442     9.850851    20.064413 # buck6d->(c3_c2h1S@naph)|naphtalene
       185    50     2   -0.27148    -2.005570     9.850851    20.064413 # buck6d->(c3_c2h1S@naph)|naphtalene
       186    51     2   -0.27148     5.993302     9.850851    20.064413 # buck6d->(c3_c2h1S@naph)|naphtalene
       187    52     2   -0.27148   -10.004471    15.735204    20.064413 # buck6d->(c3_c2h1S@naph)|naphtalene
       188    53     2   -0.27148    -2.005599    15.735204    20.064413 # buck6d->(c3_c2h1S@naph)|naphtalene
       189    54     2   -0.27148     5.993273    15.735204    20.064413 # buck6d->(c3_c2h1S@naph)|naphtalene
       190    28     3    0.22550    -0.891835     3.593869     6.935324 # buck6d->(c3_c3@naph)|naphtalene
       191    29     3    0.22550     7.107037     3.593869     6.935324 # buck6d->(c3_c3@naph)|naphtalene
       192    30     3    0.22550    15.105909     3.593869     6.935324 # buck6d->(c3_c3@naph)|naphtalene
       193    31     3    0.22550    -0.891864     9.478222     6.935324 # buck6d->(c3_c3@naph)|naphtalene
       194    32     3    0.22550     7.107008     9.478222     6.935324 # buck6d->(c3_c3@naph)|naphtalene
       195    33     3    0.22550    15.105880     9.478222     6.935324 # buck6d->(c3_c3@naph)|naphtalene
       196    34     3    0.22550    -0.891893    15.362575     6.935324 # buck6d->(c3_c3@naph)|naphtalene
       197    35     3    0.22550     7.106979    15.362575     6.935324 # buck6d->(c3_c3@naph)|naphtalene
       198    36     3    0.22550    15.105851    15.362575     6.935324 # buck6d->(c3_c3@naph)|naphtalene
       199    37     3    0.22550    -5.617466     3.593912    14.162811 # buck6d->(c3_c3@naph)|naphtalene
       200    38     3    0.22550     2.381406     3.593912    14.162811 # buck6d->(c3_c3@naph)|naphtalene
       201    39     3    0.22550    10.380278     3.593912    14.162811 # buck6d->(c3_c3@naph)|naphtalene
       202    40     3    0.22550    -5.617495     9.478265    14.162811 # buck6d->(c3_c3@naph)|naphtalene
       203    41     3    0.22550     2.381377     9.478265    14.162811 # buck6d->(c3_c3@naph)|naphtalene
       204    42     3    0.22550    10.380249     9.478265    14.162811 # buck6d->(c3_c3@naph)|naphtalene
       205    43     3    0.22550    -5.617524    15.362618    14.162811 # buck6d->(c3_c3@naph)|naphtalene
       206    44     3    0.22550     2.381348    15.362618    14.162811 # buck6d->(c3_c3@naph)|naphtalene
       207    45     3    0.22550    10.380220    15.362618    14.162811 # buck6d->(c3_c3@naph)|naphtalene
       208    46     3    0.22550   -10.343097     3.593955    21.390298 # buck6d->(c3_c3@naph)|naphtalene
       209    47     3    0.22550    -2.344225     3.593955    21.390298 # buck6d->(c3_c3@naph)|naphtalene
       210    48     3    0.22550     5.654647     3.593955    21.390298 # buck6d->(c3_c3@naph)|naphtalene
       211    49     3    0.22550   -10.343126     9.478308    21.390298 # buck6d->(c3_c3@naph)|naphtalene
       212    50     3    0.22550    -2.344254     9.478308    21.390298 # buck6d->(c3_c3@naph)|naphtalene
       213    51     3    0.22550     5.654618     9.478308    21.390298 # buck6d->(c3_c3@naph)|naphtalene
       214    52     3    0.22550   -10.343155    15.362661    21.390298 # buck6d->(c3_c3@naph)|naphtalene
       215    53     3    0.22550    -2.344283    15.362661    21.390298 # buck6d->(c3_c3@naph)|naphtalene
       216    54     3    0.22550     5.654589    15.362661    21.390298 # buck6d->(c3_c3@naph)|naphtalene
       217    46     2   -0.27148     3.097155     4.443725     0.570797 # buck6d->(c3_c2h1S@naph)|naphtalene
       218    47     2   -0.27148    11.096027     4.443725     0.570797 # buck6d->(c3_c2h1S@naph)|naphtalene
       219    48     2   -0.27148    19.094899     4.443725     0.570797 # buck6d->(c3_c2h1S@naph)|naphtalene
       220    49     2   -0.27148     3.097126    10.328078     0.570797 # buck6d->(c3_c2h1S@naph)|naphtalene
       221    50     2   -0.27148    11.095998    10.328078     0.570797 # buck6d->(c3_c2h1S@naph)|naphtalene
       222    51     2   -0.27148    19.094870    10.328078     0.570797 # buck6d->(c3_c2h1S@naph)|naphtalene
       223    52     2   -0.27148     3.097097    16.212431     0.570797 # buck6d->(c3_c2h1S@naph)|naphtalene
       224    53     2   -0.27148    11.095969    16.212431     0.570797 # buck6d->(c3_c2h1S@naph)|naphtalene
       225    54     2   -0.27148    19.094841    16.212431     0.570797 # buck6d->(c3_c2h1S@naph)|naphtalene
       226    28     2   -0.27148    -1.628476     4.443768     7.798284 # buck6d->(c3_c2h1S@naph)|naphtalene
       227    29     2   -0.27148     6.370396     4.443768     7.798284 # buck6d->(c3_c2h1S@naph)|naphtalene
       228    30     2   -0.27148    14.369268     4.443768     7.798284 # buck6d->(c3_c2h1S@naph)|naphtalene
       229    31     2   -0.27148    -1.628505    10.328121     7.798284 # buck6d->(c3_c2h1S@naph)|naphtalene
       230    32     2   -0.27148     6.370367    10.328121     7.798284 # buck6d->(c3_c2h1S@naph)|naphtalene
       231    33     2   -0.27148    14.369239    10.328121     7.798284 # buck6d->(c3_c2h1S@naph)|naphtalene
       232    34     2   -0.27148    -1.628534    16.212474     7.798284 # buck6d->(c3_c2h1S@naph)|naphtalene
       233    35     2   -0.27148     6.370338    16.212474     7.798284 # buck6d->(c3_c2h1S@naph)|naphtalene
       234    36     2   -0.27148    14.369210    16.212474     7.798284 # buck6d->(c3_c2h1S@naph)|naphtalene
       235    37     2   -0.27148    -6.354107     4.443811    15.025771 # buck6d->(c3_c2h1S@naph)|naphtalene
       236    38     2   -0.27148     1.644765     4.443811    15.025771 # buck6d->(c3_c2h1S@naph)|naphtalene
       237    39     2   -0.27148     9.643637     4.443811    15.025771 # buck6d->(c3_c2h1S@naph)|naphtalene
       238    40     2   -0.27148    -6.354136    10.328164    15.025771 # buck6d->(c3_c2h1S@naph)|naphtalene
       239    41     2   -0.27148     1.644736    10.328164    15.025771 # buck6d->(c3_c2h1S@naph)|naphtalene
       240    42     2   -0.27148     9.643608    10.328164    15.025771 # buck6d->(c3_c2h1S@naph)|naphtalene
       241    43     2   -0.27148    -6.354165    16.212517    15.025771 # buck6d->(c3_c2h1S@naph)|naphtalene
       242    44     2   -0.27148     1.644707    16.212517    15.025771 # buck6d->(c3_c2h1S@naph)|naphtalene
       243    45     2   -0.27148     9.643579    16.212517    15.025771 # buck6d->(c3_c2h1S@naph)|naphtalene
       244    46     1   -0.13392     2.770340     4.048477     1.849785 # buck6d->(c3_c2h1@naph)|naphtalene
       245    47     1   -0.13392    10.769212     4.048477     1.849785 # buck6d->(c3_c2h1@naph)|naphtalene
       246    48     1   -0.13392    18.768084     4.048477     1.849785 # buck6d->(c3_c2h1@naph)|naphtalene
       247    49     1   -0.13392     2.770311     9.932830     1.849785 # buck6d->(c3_c2h1@naph)|naphtalene
       248    50     1   -0.13392    10.769183     9.932830     1.849785 # buck6d->(c3_c2h1@naph)|naphtalene
       249    51     1   -0.13392    18.768055     9.932830     1.849785 # buck6d->(c3_c2h1@naph)|naphtalene
       250    52     1   -0.13392     2.770282    15.817183     1.849785 # buck6d->(c3_c2h1@naph)|naphtalene
       251    53     1   -0.13392    10.769154    15.817183     1.849785 # buck6d->(c3_c2h1@naph)|naphtalene
       252    54     1   -0.13392    18.768026    15.817183     1.849785 # buck6d->(c3_c2h1@naph)|naphtalene
       253    28     1   -0.13392    -1.955291     4.048520     9.077272 # buck6d->(c3_c2h1@naph)|naphtalene
       254    29     1   -0.13392     6.043581     4.048520     9.077272 # buck6d->(c3_c2h1@naph)|naphtalene
       255    30     1   -0.13392    14.042453     4.048520     9.077272 # buck6d->(c3_c2h1@naph)|naphtalene
       256    31     1   -0.13392    -1.955320     9.932873     9.077272 # buck6d->(c3_c2h1@naph)|naphtalene
       257    32     1   -0.13392     6.043552     9.932873     9.077272 # buck6d->(c3_c2h1@naph)|naphtalene
       258    33     1   -0.13392    14.042424     9.932873     9.077272 # buck6d->(c3_c2h1@naph)|naphtalene
       259    34     1   -0.13392    -1.955349    15.817226     9.077272 # buck6d->(c3_c2h1@naph)|naphtalene
       260    35     1   -0.13392     6.043523    15.817226     9.077272 # buck6d->(c3_c2h1@naph)|naphtalene
       261    36     1   -0.13392    14.042395    15.817226     9.077272 # buck6d->(c3_c2h1@naph)|naphtalene
       262    37     1   -0.13392    -6.680922     4.048563    16.304759 # buck6d->(c3_c2h1@naph)|naphtalene
       263    38     1   -0.13392     1.317950     4.048563    16.304759 # buck6d->(c3_c2h1@naph)|naphtalene
       264    39     1   -0.13392     9.316822     4.048563    16.304759 # buck6d->(c3_c2h1@naph)|naphtalene
       265    40     1   -0.13392    -6.680951     9.932916    16.304759 # buck6d->(c3_c2h1@naph)|naphtalene
       266    41     1   -0.13392     1.317921     9.932916    16.304759 # buck6d->(c3_c2h1@naph)|naphtalene
       267    42     1   -0.13392     9.316793     9.932916    16.304759 # buck6d->(c3_c2h1@naph)|naphtalene