LAMMPS data file for mol object with MOF-FF params from www.mofplus.org

      6030 atoms
         1 atom types
    0.000000    92.000000  xlo xhi
    0.000000    92.000000  ylo yhi
    0.000000    92.000000  zlo zhi

Masses

    1   200.5900 # buck6d->(hg0_@-1)|fit/gaussian->(hg0_@-1)|fit

Atoms

         1     1     1   0.00000000    36.927901    19.250766     6.736739 # buck6d->(hg0_@-1)|fit
         2     2     1   0.00000000    23.646689   -27.183519    34.459184 # buck6d->(hg0_@-1)|fit
         3     3     1   0.00000000   -40.131804   -31.053329   -10.031401 # buck6d->(hg0_@-1)|fit
         4     4     1   0.00000000   -23.615244    37.746512    -7.693765 # buck6d->(hg0_@-1)|fit
         5     5     1   0.00000000    18.403423   -32.448606    19.742604 # buck6d->(hg0_@-1)|fit
         6     6     1   0.00000000   -39.107597    27.215592   -37.791978 # buck6d->(hg0_@-1)|fit
         7     7     1   0.00000000    37.168423    12.321261    34.557481 # buck6d->(hg0_@-1)|fit
         8     8     1   0.00000000   -40.447785    36.043656    34.034047 # buck6d->(hg0_@-1)|fit
         9     9     1   0.00000000   -40.283656     7.182895    37.576650 # buck6d->(hg0_@-1)|fit
        10    10     1   0.00000000    11.305596    -5.248688   -41.964716 # buck6d->(hg0_@-1)|fit
        11    11     1   0.00000000    21.721717   -43.868952   -36.327438 # buck6d->(hg0_@-1)|fit
        12    12     1   0.00000000   -21.899502    16.376777    44.246308 # buck6d->(hg0_@-1)|fit
        13    13     1   0.00000000   -18.022794     1.388280    44.392932 # buck6d->(hg0_@-1)|fit
        14    14     1   0.00000000   -30.300706   -39.461274    26.002845 # buck6d->(hg0_@-1)|fit
        15    15     1   0.00000000   -44.542713   -23.923504   -14.198688 # buck6d->(hg0_@-1)|fit
        16    16     1   0.00000000    -0.873920   -35.203319   -20.469068 # buck6d->(hg0_@-1)|fit
        17    17     1   0.00000000    32.367646   -44.276720    14.218713 # buck6d->(hg0_@-1)|fit
        18    18     1   0.00000000    16.304527    38.580890   -12.704836 # buck6d->(hg0_@-1)|fit
        19    19     1   0.00000000    32.219814    28.715732   -40.132676 # buck6d->(hg0_@-1)|fit
        20    20     1   0.00000000   -16.684396    38.951109   -16.835980 # buck6d->(hg0_@-1)|fit
        21    21     1   0.00000000   -25.379226   -28.730973    44.460493 # buck6d->(hg0_@-1)|fit
        22    22     1   0.00000000    44.955683    36.842480   -11.773051 # buck6d->(hg0_@-1)|fit
        23    23     1   0.00000000   -43.950072    25.543099    -4.553358 # buck6d->(hg0_@-1)|fit
        24    24     1   0.00000000    -4.144296   -39.858316     6.068321 # buck6d->(hg0_@-1)|fit
        25    25     1   0.00000000    41.998790    27.764954    17.012330 # buck6d->(hg0_@-1)|fit
        26    26     1   0.00000000   -37.231357    21.913950   -23.732660 # buck6d->(hg0_@-1)|fit
        27    27     1   0.00000000   -43.430438    24.231724   -28.403392 # buck6d->(hg0_@-1)|fit
        28    28     1   0.00000000    37.969665   -42.273677    43.756251 # buck6d->(hg0_@-1)|fit
        29    29     1   0.00000000     5.983241   -23.489414   -42.587203 # buck6d->(hg0_@-1)|fit
        30    30     1   0.00000000   -13.459414   -44.621149   -44.507302 # buck6d->(hg0_@-1)|fit
        31    31     1   0.00000000   -25.779962   -20.358505    33.968670 # buck6d->(hg0_@-1)|fit
        32    32     1   0.00000000   -23.108177   -36.123828   -32.190387 # buck6d->(hg0_@-1)|fit
        33    33     1   0.00000000    38.786901   -10.275650    30.942199 # buck6d->(hg0_@-1)|fit
        34    34     1   0.00000000    -1.417318    34.906293    -5.617267 # buck6d->(hg0_@-1)|fit
        35    35     1   0.00000000    33.779757    36.922882    12.013123 # buck6d->(hg0_@-1)|fit
        36    36     1   0.00000000   -44.299406    38.754236    14.733007 # buck6d->(hg0_@-1)|fit
        37    37     1   0.00000000   -33.504945   -21.728992    19.794078 # buck6d->(hg0_@-1)|fit
        38    38     1   0.00000000   -44.029533   -36.861909    34.681650 # buck6d->(hg0_@-1)|fit
        39    39     1   0.00000000    27.952127   -43.164593    16.075720 # buck6d->(hg0_@-1)|fit
        40    40     1   0.00000000    -0.801529   -37.454724    16.406774 # buck6d->(hg0_@-1)|fit
        41    41     1   0.00000000     4.099847    -0.106567   -26.447552 # buck6d->(hg0_@-1)|fit
        42    42     1   0.00000000    27.491224    40.147552    22.258418 # buck6d->(hg0_@-1)|fit
        43    43     1   0.00000000    40.900171    20.751055    22.533787 # buck6d->(hg0_@-1)|fit
        44    44     1   0.00000000     5.124519   -17.877293   -29.447452 # buck6d->(hg0_@-1)|fit
        45    45     1   0.00000000     4.409812    -5.900820    40.442090 # buck6d->(hg0_@-1)|fit
        46    46     1   0.00000000    43.842358   -45.459762   -43.037021 # buck6d->(hg0_@-1)|fit
        47    47     1   0.00000000   -44.172792   -10.874424   -19.854545 # buck6d->(hg0_@-1)|fit
        48    48     1   0.00000000    -4.733062     0.398114   -26.667295 # buck6d->(hg0_@-1)|fit
        49    49     1   0.00000000    13.684658   -40.365003    39.518110 # buck6d->(hg0_@-1)|fit
        50    50     1   0.00000000    14.786252    14.052170   -28.155844 # buck6d->(hg0_@-1)|fit
        51    51     1   0.00000000    42.246350   -12.391552   -18.857238 # buck6d->(hg0_@-1)|fit
        52    52     1   0.00000000    -9.274152    40.854521    38.312912 # buck6d->(hg0_@-1)|fit
        53    53     1   0.00000000   -24.765606    14.981473   -38.920000 # buck6d->(hg0_@-1)|fit
        54    54     1   0.00000000   -22.326758   -23.105682   -41.812840 # buck6d->(hg0_@-1)|fit
        55    55     1   0.00000000   -14.087478   -32.403094    33.146156 # buck6d->(hg0_@-1)|fit
        56    56     1   0.00000000    39.483605    13.354544     5.687814 # buck6d->(hg0_@-1)|fit
        57    57     1   0.00000000    24.272173   -18.987620    39.690550 # buck6d->(hg0_@-1)|fit
        58    58     1   0.00000000    12.242723   -16.565915    36.206932 # buck6d->(hg0_@-1)|fit
        59    59     1   0.00000000    19.081194    37.155475    39.185100 # buck6d->(hg0_@-1)|fit
        60    60     1   0.00000000    11.723951    21.967627   -42.452579 # buck6d->(hg0_@-1)|fit
        61    61     1   0.00000000   -15.335746     0.280592   -27.283307 # buck6d->(hg0_@-1)|fit
        62    62     1   0.00000000   -36.721038   -18.340353   -25.881447 # buck6d->(hg0_@-1)|fit
        63    63     1   0.00000000    40.573191   -37.154458   -29.861928 # buck6d->(hg0_@-1)|fit
        64    64     1   0.00000000    40.425986   -35.629627     2.649180 # buck6d->(hg0_@-1)|fit
        65    65     1   0.00000000    35.542968   -39.863433    -0.940429 # buck6d->(hg0_@-1)|fit
        66    66     1   0.00000000     2.053639   -28.473027   -43.431381 # buck6d->(hg0_@-1)|fit
        67    67     1   0.00000000     8.626588    -1.918379    38.823725 # buck6d->(hg0_@-1)|fit
        68    68     1   0.00000000    32.627773   -41.959120   -25.951959 # buck6d->(hg0_@-1)|fit
        69    69     1   0.00000000   -32.741393    23.650808   -18.004050 # buck6d->(hg0_@-1)|fit
        70    70     1   0.00000000    -7.046468   -43.946717     9.371116 # buck6d->(hg0_@-1)|fit
        71    71     1   0.00000000    14.080985    -9.881438    40.602732 # buck6d->(hg0_@-1)|fit
        72    72     1   0.00000000    43.088552   -39.924398    17.831943 # buck6d->(hg0_@-1)|fit
        73    73     1   0.00000000    34.751461   -16.644078   -28.358130 # buck6d->(hg0_@-1)|fit
        74    74     1   0.00000000    -8.454943   -41.475247   -22.353000 # buck6d->(hg0_@-1)|fit
        75    75     1   0.00000000    35.707762   -40.248194    39.167038 # buck6d->(hg0_@-1)|fit
        76    76     1   0.00000000   -33.695232    -4.897863    -4.544839 # buck6d->(hg0_@-1)|fit
        77    77     1   0.00000000    -1.903005   -22.323024   -42.738785 # buck6d->(hg0_@-1)|fit
        78    78     1   0.00000000   -38.881416   -29.181600     4.980346 # buck6d->(hg0_@-1)|fit
        79    79     1   0.00000000     1.786397   -32.890103   -21.681715 # buck6d->(hg0_@-1)|fit
        80    80     1   0.00000000    30.773173   -37.106290    20.895068 # buck6d->(hg0_@-1)|fit
        81    81     1   0.00000000   -16.381343    36.977385    -3.511568 # buck6d->(hg0_@-1)|fit
        82    82     1   0.00000000    27.134281   -10.200452   -29.579332 # buck6d->(hg0_@-1)|fit
        83    83     1   0.00000000   -32.728672    -5.408050    21.872466 # buck6d->(hg0_@-1)|fit
        84    84     1   0.00000000    21.323368   -32.002814   -21.850812 # buck6d->(hg0_@-1)|fit
        85    85     1   0.00000000    -6.489536    27.450426    44.255340 # buck6d->(hg0_@-1)|fit
        86    86     1   0.00000000   -41.575197    31.489155   -35.414320 # buck6d->(hg0_@-1)|fit
        87    87     1   0.00000000    -7.107789   -33.311307    35.645552 # buck6d->(hg0_@-1)|fit
        88    88     1   0.00000000   -34.765488    20.876561    43.060284 # buck6d->(hg0_@-1)|fit
        89    89     1   0.00000000    15.615686   -38.075474    15.566216 # buck6d->(hg0_@-1)|fit
        90    90     1   0.00000000    15.689870    30.148698   -30.810236 # buck6d->(hg0_@-1)|fit
        91    91     1   0.00000000   -17.046295    30.074738   -42.564466 # buck6d->(hg0_@-1)|fit
        92    92     1   0.00000000   -19.842313    41.225572    -8.914746 # buck6d->(hg0_@-1)|fit
        93    93     1   0.00000000   -30.886859   -15.239512   -37.842414 # buck6d->(hg0_@-1)|fit
        94    94     1   0.00000000   -30.712978    37.159351     0.566236 # buck6d->(hg0_@-1)|fit
        95    95     1   0.00000000   -10.445179    39.873051    42.157440 # buck6d->(hg0_@-1)|fit
        96    96     1   0.00000000   -17.753528   -36.806527   -17.051825 # buck6d->(hg0_@-1)|fit
        97    97     1   0.00000000    45.512557   -16.633028     9.880856 # buck6d->(hg0_@-1)|fit
        98    98     1   0.00000000    37.444498   -20.728220    17.537852 # buck6d->(hg0_@-1)|fit
        99    99     1   0.00000000   -40.512906    24.861472   -10.214412 # buck6d->(hg0_@-1)|fit
       100   100     1   0.00000000    38.705362    28.104738   -11.974734 # buck6d->(hg0_@-1)|fit
       101   101     1   0.00000000   -38.368695    13.221232    35.715508 # buck6d->(hg0_@-1)|fit
       102   102     1   0.00000000    39.171237    39.784485   -10.993425 # buck6d->(hg0_@-1)|fit
       103   103     1   0.00000000    40.610309     6.346773    27.091533 # buck6d->(hg0_@-1)|fit
       104   104     1   0.00000000     5.488771    28.117592    44.522248 # buck6d->(hg0_@-1)|fit
       105   105     1   0.00000000     9.165560   -37.727618   -31.720938 # buck6d->(hg0_@-1)|fit
       106   106     1   0.00000000     3.544630   -45.249150    36.609392 # buck6d->(hg0_@-1)|fit
       107   107     1   0.00000000   -35.538569     6.173234    21.242279 # buck6d->(hg0_@-1)|fit
       108   108     1   0.00000000   -26.873836    22.629292    43.391114 # buck6d->(hg0_@-1)|fit
       109   109     1   0.00000000   -19.489220   -39.253261     9.547219 # buck6d->(hg0_@-1)|fit
       110   110     1   0.00000000   -29.738865    -3.282859     7.506083 # buck6d->(hg0_@-1)|fit
       111   111     1   0.00000000     8.857449   -39.793989   -33.187261 # buck6d->(hg0_@-1)|fit
       112   112     1   0.00000000    -1.974690    40.826643    -1.660142 # buck6d->(hg0_@-1)|fit
       113   113     1   0.00000000   -27.914318   -38.177595    27.887348 # buck6d->(hg0_@-1)|fit
       114   114     1   0.00000000    13.300919    38.360546   -26.146270 # buck6d->(hg0_@-1)|fit
       115   115     1   0.00000000   -29.525781    37.052902    31.822419 # buck6d->(hg0_@-1)|fit
       116   116     1   0.00000000   -10.345768     8.973161    44.827770 # buck6d->(hg0_@-1)|fit
       117   117     1   0.00000000    17.983470   -28.057277    33.575277 # buck6d->(hg0_@-1)|fit
       118   118     1   0.00000000   -31.271425     7.075748   -44.534342 # buck6d->(hg0_@-1)|fit
       119   119     1   0.00000000    24.513701    41.505977    43.382376 # buck6d->(hg0_@-1)|fit
       120   120     1   0.00000000   -31.783832    32.564829    17.064226 # buck6d->(hg0_@-1)|fit
       121   121     1   0.00000000    31.322825   -39.066201    -5.624714 # buck6d->(hg0_@-1)|fit
       122   122     1   0.00000000    40.875127   -14.142595    -5.592217 # buck6d->(hg0_@-1)|fit
       123   123     1   0.00000000   -12.577916    41.293844   -21.494800 # buck6d->(hg0_@-1)|fit
       124   124     1   0.00000000    23.671908    38.627156    30.846369 # buck6d->(hg0_@-1)|fit
       125   125     1   0.00000000   -11.925602    42.294457     9.726329 # buck6d->(hg0_@-1)|fit
       126   126     1   0.00000000    18.463655   -42.765419   -29.961778 # buck6d->(hg0_@-1)|fit
       127   127     1   0.00000000    44.708608    25.328944   -21.409090 # buck6d->(hg0_@-1)|fit
       128   128     1   0.00000000   -21.092783    35.446927   -14.652153 # buck6d->(hg0_@-1)|fit
       129   129     1   0.00000000   -40.178017   -27.072876    19.093491 # buck6d->(hg0_@-1)|fit
       130   130     1   0.00000000   -29.883394     8.988150     7.866121 # buck6d->(hg0_@-1)|fit
       131   131     1   0.00000000    34.853867   -17.518671    -8.319267 # buck6d->(hg0_@-1)|fit
       132   132     1   0.00000000     2.272614    38.596107    16.223616 # buck6d->(hg0_@-1)|fit
       133   133     1   0.00000000    43.888103    32.218575     6.011768 # buck6d->(hg0_@-1)|fit
       134   134     1   0.00000000    16.480659    43.913055   -20.564308 # buck6d->(hg0_@-1)|fit
       135   135     1   0.00000000    36.998721   -35.874386     4.400639 # buck6d->(hg0_@-1)|fit
       136   136     1   0.00000000   -42.403913    -0.229717   -39.320578 # buck6d->(hg0_@-1)|fit
       137   137     1   0.00000000   -40.126089    -1.316565    18.514867 # buck6d->(hg0_@-1)|fit
       138   138     1   0.00000000   -14.403860    35.838574    26.261013 # buck6d->(hg0_@-1)|fit
       139   139     1   0.00000000   -35.176271   -22.662746     5.143021 # buck6d->(hg0_@-1)|fit
       140   140     1   0.00000000    43.784811   -23.282463   -41.963047 # buck6d->(hg0_@-1)|fit
       141   141     1   0.00000000   -24.548672     9.750882    35.352810 # buck6d->(hg0_@-1)|fit
       142   142     1   0.00000000     9.988948    45.502059    -5.087427 # buck6d->(hg0_@-1)|fit
       143   143     1   0.00000000   -19.304544    41.399887    15.064900 # buck6d->(hg0_@-1)|fit
       144   144     1   0.00000000   -45.210503   -43.512286    24.064692 # buck6d->(hg0_@-1)|fit
       145   145     1   0.00000000    38.406345    18.378153    14.164824 # buck6d->(hg0_@-1)|fit
       146   146     1   0.00000000    21.189704   -38.389538   -21.011393 # buck6d->(hg0_@-1)|fit
       147   147     1   0.00000000   -43.084439   -42.033687   -27.264527 # buck6d->(hg0_@-1)|fit
       148   148     1   0.00000000    -5.716034    44.786984   -10.431215 # buck6d->(hg0_@-1)|fit
       149   149     1   0.00000000    17.679184   -33.805232    27.959618 # buck6d->(hg0_@-1)|fit
       150   150     1   0.00000000   -39.170741    -6.126081    26.358869 # buck6d->(hg0_@-1)|fit
       151   151     1   0.00000000   -33.425667   -16.800001   -22.598778 # buck6d->(hg0_@-1)|fit
       152   152     1   0.00000000    42.576733   -42.727357   -35.274562 # buck6d->(hg0_@-1)|fit
       153   153     1   0.00000000     1.311444   -42.281974   -30.754185 # buck6d->(hg0_@-1)|fit
       154   154     1   0.00000000    41.199165     7.899122     5.690631 # buck6d->(hg0_@-1)|fit
       155   155     1   0.00000000    -9.694956    35.264610    29.714361 # buck6d->(hg0_@-1)|fit
       156   156     1   0.00000000    43.560642   -36.171015   -23.196739 # buck6d->(hg0_@-1)|fit
       157   157     1   0.00000000    42.679947     8.427142    18.973112 # buck6d->(hg0_@-1)|fit
       158   158     1   0.00000000    -6.804967   -39.454992   -35.620064 # buck6d->(hg0_@-1)|fit
       159   159     1   0.00000000    11.357751    22.130867    30.522483 # buck6d->(hg0_@-1)|fit
       160   160     1   0.00000000    -2.090257   -37.834881    32.481987 # buck6d->(hg0_@-1)|fit
       161   161     1   0.00000000    11.787839    37.095172   -41.109589 # buck6d->(hg0_@-1)|fit
       162   162     1   0.00000000   -31.565518    -1.410281   -30.260346 # buck6d->(hg0_@-1)|fit
       163   163     1   0.00000000   -40.374204    30.719977    38.950673 # buck6d->(hg0_@-1)|fit
       164   164     1   0.00000000    42.296820    38.083032   -44.436588 # buck6d->(hg0_@-1)|fit
       165   165     1   0.00000000   -28.055169    37.011099    21.093579 # buck6d->(hg0_@-1)|fit
       166   166     1   0.00000000    -6.368009   -24.773714   -44.879973 # buck6d->(hg0_@-1)|fit
       167   167     1   0.00000000   -34.251020   -19.611397    24.485278 # buck6d->(hg0_@-1)|fit
       168   168     1   0.00000000   -15.927119   -32.188866    12.732910 # buck6d->(hg0_@-1)|fit
       169   169     1   0.00000000    -7.490143    18.656894   -28.634420 # buck6d->(hg0_@-1)|fit
       170   170     1   0.00000000    16.799468   -41.783644   -21.713781 # buck6d->(hg0_@-1)|fit
       171   171     1   0.00000000    21.462262   -34.233402     9.350723 # buck6d->(hg0_@-1)|fit
       172   172     1   0.00000000    17.517970   -41.154893    23.439626 # buck6d->(hg0_@-1)|fit
       173   173     1   0.00000000   -42.743427    -2.773548    44.094861 # buck6d->(hg0_@-1)|fit
       174   174     1   0.00000000   -12.984171    29.047323    42.142304 # buck6d->(hg0_@-1)|fit
       175   175     1   0.00000000   -45.419569    18.952831    15.379853 # buck6d->(hg0_@-1)|fit
       176   176     1   0.00000000   -37.396843    34.497335    24.582928 # buck6d->(hg0_@-1)|fit
       177   177     1   0.00000000    43.209547    19.393749   -27.722028 # buck6d->(hg0_@-1)|fit
       178   178     1   0.00000000    20.211739    21.922850    43.089163 # buck6d->(hg0_@-1)|fit
       179   179     1   0.00000000   -33.584034    24.074505    -1.829923 # buck6d->(hg0_@-1)|fit
       180   180     1   0.00000000   -35.323496   -12.574801   -29.985064 # buck6d->(hg0_@-1)|fit
       181   181     1   0.00000000    34.917276    13.660722    36.126032 # buck6d->(hg0_@-1)|fit
       182   182     1   0.00000000    -9.783328    19.904299    43.253133 # buck6d->(hg0_@-1)|fit
       183   183     1   0.00000000   -31.574335   -13.295384   -20.557079 # buck6d->(hg0_@-1)|fit
       184   184     1   0.00000000    14.848069    31.631746   -26.075110 # buck6d->(hg0_@-1)|fit
       185   185     1   0.00000000    -9.692409    43.874545   -11.509516 # buck6d->(hg0_@-1)|fit
       186   186     1   0.00000000    35.626732   -11.328128    -4.358445 # buck6d->(hg0_@-1)|fit
       187   187     1   0.00000000   -24.379359   -33.518602    15.891857 # buck6d->(hg0_@-1)|fit
       188   188     1   0.00000000     2.479563   -36.526615    39.283108 # buck6d->(hg0_@-1)|fit
       189   189     1   0.00000000   -14.105679   -35.854780     3.684370 # buck6d->(hg0_@-1)|fit
       190   190     1   0.00000000   -40.575822   -33.402494     4.186309 # buck6d->(hg0_@-1)|fit
       191   191     1   0.00000000   -36.657210    11.840821    38.497904 # buck6d->(hg0_@-1)|fit
       192   192     1   0.00000000    -1.612479     5.746753    38.990780 # buck6d->(hg0_@-1)|fit
       193   193     1   0.00000000    42.127429    -6.535836    -5.556559 # buck6d->(hg0_@-1)|fit
       194   194     1   0.00000000    44.313999    -3.313902   -10.507287 # buck6d->(hg0_@-1)|fit
       195   195     1   0.00000000   -41.366758   -31.194658    31.331130 # buck6d->(hg0_@-1)|fit
       196   196     1   0.00000000    40.004293   -17.105799    21.582003 # buck6d->(hg0_@-1)|fit
       197   197     1   0.00000000   -39.933857    -1.018914    41.759646 # buck6d->(hg0_@-1)|fit
       198   198     1   0.00000000    18.553931   -37.122061    30.046508 # buck6d->(hg0_@-1)|fit
       199   199     1   0.00000000   -30.440572   -12.215839     6.189657 # buck6d->(hg0_@-1)|fit
       200   200     1   0.00000000    12.939163    24.398434    40.942208 # buck6d->(hg0_@-1)|fit
       201   201     1   0.00000000    25.766434     9.168342    36.983399 # buck6d->(hg0_@-1)|fit
       202   202     1   0.00000000    41.864714    45.244732     6.589038 # buck6d->(hg0_@-1)|fit
       203   203     1   0.00000000    15.384363    38.726758   -42.958342 # buck6d->(hg0_@-1)|fit
       204   204     1   0.00000000   -32.249661    41.326881     8.508890 # buck6d->(hg0_@-1)|fit
       205   205     1   0.00000000    37.844708   -15.466598    20.468511 # buck6d->(hg0_@-1)|fit
       206   206     1   0.00000000   -12.218479   -44.885320   -32.831796 # buck6d->(hg0_@-1)|fit
       207   207     1   0.00000000   -15.685462    44.046811   -36.579845 # buck6d->(hg0_@-1)|fit
       208   208     1   0.00000000   -26.351271   -25.971320    36.783660 # buck6d->(hg0_@-1)|fit
       209   209     1   0.00000000   -31.815321    23.634114    33.026612 # buck6d->(hg0_@-1)|fit
       210   210     1   0.00000000   -14.550423    24.035460   -34.626149 # buck6d->(hg0_@-1)|fit
       211   211     1   0.00000000   -35.596448    29.734640    12.585321 # buck6d->(hg0_@-1)|fit
       212   212     1   0.00000000   -44.595632   -14.566482   -38.969185 # buck6d->(hg0_@-1)|fit
       213   213     1   0.00000000    -3.915713    -0.980687   -39.804486 # buck6d->(hg0_@-1)|fit
       214   214     1   0.00000000    24.789251    38.095588    15.993090 # buck6d->(hg0_@-1)|fit
       215   215     1   0.00000000    21.278314    21.946653    39.148061 # buck6d->(hg0_@-1)|fit
       216   216     1   0.00000000   -45.108024    15.335170    -0.019596 # buck6d->(hg0_@-1)|fit
       217   217     1   0.00000000    25.616141   -32.484007    24.186749 # buck6d->(hg0_@-1)|fit
       218   218     1   0.00000000   -26.524561   -17.016579    38.311394 # buck6d->(hg0_@-1)|fit
       219   219     1   0.00000000    39.772129   -17.864661    19.746180 # buck6d->(hg0_@-1)|fit
       220   220     1   0.00000000   -41.076003   -36.437216    20.631548 # buck6d->(hg0_@-1)|fit
       221   221     1   0.00000000   -45.295398   -39.542835   -43.579987 # buck6d->(hg0_@-1)|fit
       222   222     1   0.00000000     3.921092   -30.674274   -35.730935 # buck6d->(hg0_@-1)|fit
       223   223     1   0.00000000    37.947107    15.569712    -4.530315 # buck6d->(hg0_@-1)|fit
       224   224     1   0.00000000    25.442472    14.904534    43.150853 # buck6d->(hg0_@-1)|fit
       225   225     1   0.00000000   -24.070368    22.550132    33.845745 # buck6d->(hg0_@-1)|fit
       226   226     1   0.00000000   -21.397245   -18.452750    32.973209 # buck6d->(hg0_@-1)|fit
       227   227     1   0.00000000    13.341945    13.654948   -26.830437 # buck6d->(hg0_@-1)|fit
       228   228     1   0.00000000    20.777144   -26.716765   -38.405527 # buck6d->(hg0_@-1)|fit
       229   229     1   0.00000000   -32.970801    23.265730   -36.487621 # buck6d->(hg0_@-1)|fit
       230   230     1   0.00000000   -21.915384    36.247717   -29.222659 # buck6d->(hg0_@-1)|fit
       231   231     1   0.00000000    27.236626   -36.774970   -24.216454 # buck6d->(hg0_@-1)|fit
       232   232     1   0.00000000   -34.471865    28.909686    30.477234 # buck6d->(hg0_@-1)|fit
       233   233     1   0.00000000    35.168729   -23.996396   -31.963902 # buck6d->(hg0_@-1)|fit
       234   234     1   0.00000000    40.011018    -2.566355   -20.307219 # buck6d->(hg0_@-1)|fit
       235   235     1   0.00000000   -41.542218    -8.882851   -44.147104 # buck6d->(hg0_@-1)|fit
       236   236     1   0.00000000   -37.036197   -15.650867   -20.503655 # buck6d->(hg0_@-1)|fit
       237   237     1   0.00000000     1.180024   -41.637349   -20.382210 # buck6d->(hg0_@-1)|fit
       238   238     1   0.00000000    41.304835   -45.428257   -31.806314 # buck6d->(hg0_@-1)|fit
       239   239     1   0.00000000     3.681628    -6.067173   -38.480551 # buck6d->(hg0_@-1)|fit
       240   240     1   0.00000000    36.272698   -26.264465    -7.985929 # buck6d->(hg0_@-1)|fit
       241   241     1   0.00000000    16.000591    35.254268   -18.337688 # buck6d->(hg0_@-1)|fit
       242   242     1   0.00000000   -45.035400     0.059929   -41.009239 # buck6d->(hg0_@-1)|fit
       243   243     1   0.00000000    -3.397680    39.905664    43.974098 # buck6d->(hg0_@-1)|fit
       244   244     1   0.00000000   -16.597343    30.280002   -44.502588 # buck6d->(hg0_@-1)|fit
       245   245     1   0.00000000     3.299170    33.915821    40.856633 # buck6d->(hg0_@-1)|fit
       246   246     1   0.00000000   -42.462738   -25.560615   -16.596256 # buck6d->(hg0_@-1)|fit
       247   247     1   0.00000000   -44.488365    15.882854    26.495656 # buck6d->(hg0_@-1)|fit
       248   248     1   0.00000000     3.594773   -19.486164    37.995358 # buck6d->(hg0_@-1)|fit
       249   249     1   0.00000000   -36.900116   -27.515992    28.300082 # buck6d->(hg0_@-1)|fit
       250   250     1   0.00000000    44.689035     3.471032    32.693283 # buck6d->(hg0_@-1)|fit
       251   251     1   0.00000000   -39.353984    22.488730    44.769013 # buck6d->(hg0_@-1)|fit
       252   252     1   0.00000000    10.708943   -15.929623   -38.868203 # buck6d->(hg0_@-1)|fit
       253   253     1   0.00000000    21.041215   -43.664079    43.465710 # buck6d->(hg0_@-1)|fit
       254   254     1   0.00000000   -44.745551    40.678601   -25.140751 # buck6d->(hg0_@-1)|fit
       255   255     1   0.00000000    -0.333323    37.934041   -24.172461 # buck6d->(hg0_@-1)|fit
       256   256     1   0.00000000   -10.731358   -40.178165   -12.601139 # buck6d->(hg0_@-1)|fit
       257   257     1   0.00000000     9.918711   -29.277225   -25.540917 # buck6d->(hg0_@-1)|fit
       258   258     1   0.00000000   -29.459172     9.774567   -19.762459 # buck6d->(hg0_@-1)|fit
       259   259     1   0.00000000   -24.613550   -34.875998   -15.119954 # buck6d->(hg0_@-1)|fit
       260   260     1   0.00000000   -19.781409    39.363667   -43.662595 # buck6d->(hg0_@-1)|fit
       261   261     1   0.00000000    41.557328    45.242741   -36.277249 # buck6d->(hg0_@-1)|fit
       262   262     1   0.00000000   -31.053006    15.206649    33.551142 # buck6d->(hg0_@-1)|fit
       263   263     1   0.00000000    -4.670235    36.824762     4.369654 # buck6d->(hg0_@-1)|fit
       264   264     1   0.00000000   -19.898865   -36.000302   -41.510241 # buck6d->(hg0_@-1)|fit
       265   265     1   0.00000000   -21.150905   -25.245185   -33.116633 # buck6d->(hg0_@-1)|fit
       266   266     1   0.00000000    13.397271   -31.734261   -24.222183 # buck6d->(hg0_@-1)|fit
       267   267     1   0.00000000    23.880841     6.789202    40.126814 # buck6d->(hg0_@-1)|fit
       268   268     1   0.00000000    13.528340    39.239319     2.659782 # buck6d->(hg0_@-1)|fit
       269   269     1   0.00000000   -23.002784   -36.561317   -10.451967 # buck6d->(hg0_@-1)|fit
       270   270     1   0.00000000   -38.763524    18.770230     7.791936 # buck6d->(hg0_@-1)|fit
       271   271     1   0.00000000   -36.776497   -36.249459     3.189577 # buck6d->(hg0_@-1)|fit
       272   272     1   0.00000000    10.750705   -16.467930   -34.585442 # buck6d->(hg0_@-1)|fit
       273   273     1   0.00000000    41.482185   -18.128708    37.015631 # buck6d->(hg0_@-1)|fit
       274   274     1   0.00000000    43.015998    -8.874230   -23.825388 # buck6d->(hg0_@-1)|fit
       275   275     1   0.00000000   -44.169213   -34.032249    30.344499 # buck6d->(hg0_@-1)|fit
       276   276     1   0.00000000    28.786100    41.889525    38.297247 # buck6d->(hg0_@-1)|fit
       277   277     1   0.00000000    18.036254     4.074725    34.194972 # buck6d->(hg0_@-1)|fit
       278   278     1   0.00000000   -37.138957     0.921412    43.849431 # buck6d->(hg0_@-1)|fit
       279   279     1   0.00000000   -38.947745    -1.126218    21.324796 # buck6d->(hg0_@-1)|fit
       280   280     1   0.00000000     0.669697    44.805104    41.138508 # buck6d->(hg0_@-1)|fit
       281   281     1   0.00000000    37.222740    30.750221     9.818206 # buck6d->(hg0_@-1)|fit
       282   282     1   0.00000000    41.960541   -10.150045    35.356154 # buck6d->(hg0_@-1)|fit
       283   283     1   0.00000000     8.778912   -44.149895   -29.510009 # buck6d->(hg0_@-1)|fit
       284   284     1   0.00000000   -34.991111   -38.452934    26.878937 # buck6d->(hg0_@-1)|fit
       285   285     1   0.00000000   -38.103116    16.367742    21.109174 # buck6d->(hg0_@-1)|fit
       286   286     1   0.00000000    10.204300   -22.458599   -36.306429 # buck6d->(hg0_@-1)|fit
       287   287     1   0.00000000    14.291810   -37.368696   -18.955409 # buck6d->(hg0_@-1)|fit
       288   288     1   0.00000000    11.128344     0.053820   -34.352828 # buck6d->(hg0_@-1)|fit
       289   289     1   0.00000000    34.777053    17.009970    -9.119864 # buck6d->(hg0_@-1)|fit
       290   290     1   0.00000000   -35.484848     5.606116   -42.088908 # buck6d->(hg0_@-1)|fit
       291   291     1   0.00000000   -14.587577    41.320195   -45.226463 # buck6d->(hg0_@-1)|fit
       292   292     1   0.00000000   -42.208384   -14.161587   -26.992466 # buck6d->(hg0_@-1)|fit
       293   293     1   0.00000000    11.995901    45.417261    19.177159 # buck6d->(hg0_@-1)|fit
       294   294     1   0.00000000   -37.820933    32.203511    21.401951 # buck6d->(hg0_@-1)|fit
       295   295     1   0.00000000   -10.183353   -17.530091   -31.622839 # buck6d->(hg0_@-1)|fit
       296   296     1   0.00000000   -42.026069   -22.907682   -29.442245 # buck6d->(hg0_@-1)|fit
       297   297     1   0.00000000    37.107887   -21.666698   -43.254095 # buck6d->(hg0_@-1)|fit
       298   298     1   0.00000000    16.358895   -22.687874   -40.930632 # buck6d->(hg0_@-1)|fit
       299   299     1   0.00000000    18.336381    42.261732    17.686727 # buck6d->(hg0_@-1)|fit
       300   300     1   0.00000000   -28.567107   -30.480751   -10.942929 # buck6d->(hg0_@-1)|fit