LAMMPS data file for mol object with MOF-FF params from www.mofplus.org

       972 atoms
      1026 bonds
      1620 angles
      2376 dihedrals
       540 impropers
         3 atom types
         4 bond types
         6 angle types
        10 dihedral types
         3 improper types

0.0000000000 24.2352180845  xlo xhi
0.0000000000 17.7095624700  ylo yhi
0.0000000000 21.3832323189  zlo zhi
0.0000000000 -14.5536514188 0.0000000000  xy xz yz

Masses

    1    12.0107 # buck6d->(c3_c2h1@naph)|naph/gaussian->(c3_c2h1@naph)|naph
    2    12.0107 # buck6d->(c3_c3@naph)|naph/gaussian->(c3_c3@naph)|naph
    3     1.0079 # buck6d->(h1_c1@naph)|naph/gaussian->(h1_c1@naph)|naph

Atoms

         1     1     1   -0.09395    -0.927667     0.122083     2.353140 # buck6d->(c3_c2h1@naph)|naph
         2     2     1   -0.09395     7.150739     0.122083     2.353140 # buck6d->(c3_c2h1@naph)|naph
         3     3     1   -0.09395    15.229145     0.122083     2.353140 # buck6d->(c3_c2h1@naph)|naph
         4     4     1   -0.09395    -0.927667     6.025270     2.353140 # buck6d->(c3_c2h1@naph)|naph
         5     5     1   -0.09395     7.150739     6.025270     2.353140 # buck6d->(c3_c2h1@naph)|naph
         6     6     1   -0.09395    15.229145     6.025270     2.353140 # buck6d->(c3_c2h1@naph)|naph
         7     7     1   -0.09395    -0.927667    11.928457     2.353140 # buck6d->(c3_c2h1@naph)|naph
         8     8     1   -0.09395     7.150739    11.928457     2.353140 # buck6d->(c3_c2h1@naph)|naph
         9     9     1   -0.09395    15.229145    11.928457     2.353140 # buck6d->(c3_c2h1@naph)|naph
        10    10     1   -0.09395    -5.778885     0.122083     9.480884 # buck6d->(c3_c2h1@naph)|naph
        11    11     1   -0.09395     2.299521     0.122083     9.480884 # buck6d->(c3_c2h1@naph)|naph
        12    12     1   -0.09395    10.377927     0.122083     9.480884 # buck6d->(c3_c2h1@naph)|naph
        13    13     1   -0.09395    -5.778885     6.025270     9.480884 # buck6d->(c3_c2h1@naph)|naph
        14    14     1   -0.09395     2.299521     6.025270     9.480884 # buck6d->(c3_c2h1@naph)|naph
        15    15     1   -0.09395    10.377927     6.025270     9.480884 # buck6d->(c3_c2h1@naph)|naph
        16    16     1   -0.09395    -5.778885    11.928457     9.480884 # buck6d->(c3_c2h1@naph)|naph
        17    17     1   -0.09395     2.299521    11.928457     9.480884 # buck6d->(c3_c2h1@naph)|naph
        18    18     1   -0.09395    10.377927    11.928457     9.480884 # buck6d->(c3_c2h1@naph)|naph
        19    19     1   -0.09395   -10.630102     0.122083    16.608628 # buck6d->(c3_c2h1@naph)|naph
        20    20     1   -0.09395    -2.551696     0.122083    16.608628 # buck6d->(c3_c2h1@naph)|naph
        21    21     1   -0.09395     5.526710     0.122083    16.608628 # buck6d->(c3_c2h1@naph)|naph
        22    22     1   -0.09395   -10.630102     6.025270    16.608628 # buck6d->(c3_c2h1@naph)|naph
        23    23     1   -0.09395    -2.551696     6.025270    16.608628 # buck6d->(c3_c2h1@naph)|naph
        24    24     1   -0.09395     5.526710     6.025270    16.608628 # buck6d->(c3_c2h1@naph)|naph
        25    25     1   -0.09395   -10.630102    11.928457    16.608628 # buck6d->(c3_c2h1@naph)|naph
        26    26     1   -0.09395    -2.551696    11.928457    16.608628 # buck6d->(c3_c2h1@naph)|naph
        27    27     1   -0.09395     5.526710    11.928457    16.608628 # buck6d->(c3_c2h1@naph)|naph
        28     1     1   -0.09395    -0.164042     0.979134     1.588586 # buck6d->(c3_c2h1@naph)|naph
        29     2     1   -0.09395     7.914364     0.979134     1.588586 # buck6d->(c3_c2h1@naph)|naph
        30     3     1   -0.09395    15.992770     0.979134     1.588586 # buck6d->(c3_c2h1@naph)|naph
        31     4     1   -0.09395    -0.164042     6.882321     1.588586 # buck6d->(c3_c2h1@naph)|naph
        32     5     1   -0.09395     7.914364     6.882321     1.588586 # buck6d->(c3_c2h1@naph)|naph
        33     6     1   -0.09395    15.992770     6.882321     1.588586 # buck6d->(c3_c2h1@naph)|naph
        34     7     1   -0.09395    -0.164042    12.785509     1.588586 # buck6d->(c3_c2h1@naph)|naph
        35     8     1   -0.09395     7.914364    12.785509     1.588586 # buck6d->(c3_c2h1@naph)|naph
        36     9     1   -0.09395    15.992770    12.785509     1.588586 # buck6d->(c3_c2h1@naph)|naph
        37    10     1   -0.09395    -5.015259     0.979134     8.716331 # buck6d->(c3_c2h1@naph)|naph
        38    11     1   -0.09395     3.063147     0.979134     8.716331 # buck6d->(c3_c2h1@naph)|naph
        39    12     1   -0.09395    11.141553     0.979134     8.716331 # buck6d->(c3_c2h1@naph)|naph
        40    13     1   -0.09395    -5.015259     6.882321     8.716331 # buck6d->(c3_c2h1@naph)|naph
        41    14     1   -0.09395     3.063147     6.882321     8.716331 # buck6d->(c3_c2h1@naph)|naph
        42    15     1   -0.09395    11.141553     6.882321     8.716331 # buck6d->(c3_c2h1@naph)|naph
        43    16     1   -0.09395    -5.015259    12.785509     8.716331 # buck6d->(c3_c2h1@naph)|naph
        44    17     1   -0.09395     3.063147    12.785509     8.716331 # buck6d->(c3_c2h1@naph)|naph
        45    18     1   -0.09395    11.141553    12.785509     8.716331 # buck6d->(c3_c2h1@naph)|naph
        46    19     1   -0.09395    -9.866477     0.979134    15.844075 # buck6d->(c3_c2h1@naph)|naph
        47    20     1   -0.09395    -1.788070     0.979134    15.844075 # buck6d->(c3_c2h1@naph)|naph
        48    21     1   -0.09395     6.290336     0.979134    15.844075 # buck6d->(c3_c2h1@naph)|naph
        49    22     1   -0.09395    -9.866477     6.882321    15.844075 # buck6d->(c3_c2h1@naph)|naph
        50    23     1   -0.09395    -1.788070     6.882321    15.844075 # buck6d->(c3_c2h1@naph)|naph
        51    24     1   -0.09395     6.290336     6.882321    15.844075 # buck6d->(c3_c2h1@naph)|naph
        52    25     1   -0.09395    -9.866477    12.785509    15.844075 # buck6d->(c3_c2h1@naph)|naph
        53    26     1   -0.09395    -1.788070    12.785509    15.844075 # buck6d->(c3_c2h1@naph)|naph
        54    27     1   -0.09395     6.290336    12.785509    15.844075 # buck6d->(c3_c2h1@naph)|naph
        55     1     2    0.05423     0.210708     0.632546     0.264920 # buck6d->(c3_c3@naph)|naph
        56     2     2    0.05423     8.289114     0.632546     0.264920 # buck6d->(c3_c3@naph)|naph
        57     3     2    0.05423    16.367520     0.632546     0.264920 # buck6d->(c3_c3@naph)|naph
        58     4     2    0.05423     0.210708     6.535734     0.264920 # buck6d->(c3_c3@naph)|naph
        59     5     2    0.05423     8.289114     6.535734     0.264920 # buck6d->(c3_c3@naph)|naph
        60     6     2    0.05423    16.367520     6.535734     0.264920 # buck6d->(c3_c3@naph)|naph
        61     7     2    0.05423     0.210708    12.438921     0.264920 # buck6d->(c3_c3@naph)|naph
        62     8     2    0.05423     8.289114    12.438921     0.264920 # buck6d->(c3_c3@naph)|naph
        63     9     2    0.05423    16.367520    12.438921     0.264920 # buck6d->(c3_c3@naph)|naph
        64    10     2    0.05423    -4.640510     0.632546     7.392664 # buck6d->(c3_c3@naph)|naph
        65    11     2    0.05423     3.437897     0.632546     7.392664 # buck6d->(c3_c3@naph)|naph
        66    12     2    0.05423    11.516303     0.632546     7.392664 # buck6d->(c3_c3@naph)|naph
        67    13     2    0.05423    -4.640510     6.535734     7.392664 # buck6d->(c3_c3@naph)|naph
        68    14     2    0.05423     3.437897     6.535734     7.392664 # buck6d->(c3_c3@naph)|naph
        69    15     2    0.05423    11.516303     6.535734     7.392664 # buck6d->(c3_c3@naph)|naph
        70    16     2    0.05423    -4.640510    12.438921     7.392664 # buck6d->(c3_c3@naph)|naph
        71    17     2    0.05423     3.437897    12.438921     7.392664 # buck6d->(c3_c3@naph)|naph
        72    18     2    0.05423    11.516303    12.438921     7.392664 # buck6d->(c3_c3@naph)|naph
        73    19     2    0.05423    -9.491727     0.632546    14.520408 # buck6d->(c3_c3@naph)|naph
        74    20     2    0.05423    -1.413321     0.632546    14.520408 # buck6d->(c3_c3@naph)|naph
        75    21     2    0.05423     6.665085     0.632546    14.520408 # buck6d->(c3_c3@naph)|naph
        76    22     2    0.05423    -9.491727     6.535734    14.520408 # buck6d->(c3_c3@naph)|naph
        77    23     2    0.05423    -1.413321     6.535734    14.520408 # buck6d->(c3_c3@naph)|naph
        78    24     2    0.05423     6.665085     6.535734    14.520408 # buck6d->(c3_c3@naph)|naph
        79    25     2    0.05423    -9.491727    12.438921    14.520408 # buck6d->(c3_c3@naph)|naph
        80    26     2    0.05423    -1.413321    12.438921    14.520408 # buck6d->(c3_c3@naph)|naph
        81    27     2    0.05423     6.665085    12.438921    14.520408 # buck6d->(c3_c3@naph)|naph
        82    10     1   -0.09395    -3.862226     1.495572     6.578997 # buck6d->(c3_c2h1@naph)|naph
        83    11     1   -0.09395     4.216180     1.495572     6.578997 # buck6d->(c3_c2h1@naph)|naph
        84    12     1   -0.09395    12.294586     1.495572     6.578997 # buck6d->(c3_c2h1@naph)|naph
        85    13     1   -0.09395    -3.862226     7.398759     6.578997 # buck6d->(c3_c2h1@naph)|naph
        86    14     1   -0.09395     4.216180     7.398759     6.578997 # buck6d->(c3_c2h1@naph)|naph
        87    15     1   -0.09395    12.294586     7.398759     6.578997 # buck6d->(c3_c2h1@naph)|naph
        88    16     1   -0.09395    -3.862226    13.301947     6.578997 # buck6d->(c3_c2h1@naph)|naph
        89    17     1   -0.09395     4.216180    13.301947     6.578997 # buck6d->(c3_c2h1@naph)|naph
        90    18     1   -0.09395    12.294586    13.301947     6.578997 # buck6d->(c3_c2h1@naph)|naph
        91    19     1   -0.09395    -8.713443     1.495572    13.706741 # buck6d->(c3_c2h1@naph)|naph
        92    20     1   -0.09395    -0.635037     1.495572    13.706741 # buck6d->(c3_c2h1@naph)|naph
        93    21     1   -0.09395     7.443369     1.495572    13.706741 # buck6d->(c3_c2h1@naph)|naph
        94    22     1   -0.09395    -8.713443     7.398759    13.706741 # buck6d->(c3_c2h1@naph)|naph
        95    23     1   -0.09395    -0.635037     7.398759    13.706741 # buck6d->(c3_c2h1@naph)|naph
        96    24     1   -0.09395     7.443369     7.398759    13.706741 # buck6d->(c3_c2h1@naph)|naph
        97    25     1   -0.09395    -8.713443    13.301947    13.706741 # buck6d->(c3_c2h1@naph)|naph
        98    26     1   -0.09395    -0.635037    13.301947    13.706741 # buck6d->(c3_c2h1@naph)|naph
        99    27     1   -0.09395     7.443369    13.301947    13.706741 # buck6d->(c3_c2h1@naph)|naph
       100     1     1   -0.09395   -13.564660     1.495572    20.834485 # buck6d->(c3_c2h1@naph)|naph
       101     2     1   -0.09395    -5.486254     1.495572    20.834485 # buck6d->(c3_c2h1@naph)|naph
       102     3     1   -0.09395     2.592152     1.495572    20.834485 # buck6d->(c3_c2h1@naph)|naph
       103     4     1   -0.09395   -13.564660     7.398759    20.834485 # buck6d->(c3_c2h1@naph)|naph
       104     5     1   -0.09395    -5.486254     7.398759    20.834485 # buck6d->(c3_c2h1@naph)|naph
       105     6     1   -0.09395     2.592152     7.398759    20.834485 # buck6d->(c3_c2h1@naph)|naph
       106     7     1   -0.09395   -13.564660    13.301947    20.834485 # buck6d->(c3_c2h1@naph)|naph
       107     8     1   -0.09395    -5.486254    13.301947    20.834485 # buck6d->(c3_c2h1@naph)|naph
       108     9     1   -0.09395     2.592152    13.301947    20.834485 # buck6d->(c3_c2h1@naph)|naph
       109    10     1   -0.09395    -3.506384     1.125762     5.298247 # buck6d->(c3_c2h1@naph)|naph
       110    11     1   -0.09395     4.572022     1.125762     5.298247 # buck6d->(c3_c2h1@naph)|naph
       111    12     1   -0.09395    12.650428     1.125762     5.298247 # buck6d->(c3_c2h1@naph)|naph
       112    13     1   -0.09395    -3.506384     7.028949     5.298247 # buck6d->(c3_c2h1@naph)|naph
       113    14     1   -0.09395     4.572022     7.028949     5.298247 # buck6d->(c3_c2h1@naph)|naph
       114    15     1   -0.09395    12.650428     7.028949     5.298247 # buck6d->(c3_c2h1@naph)|naph
       115    16     1   -0.09395    -3.506384    12.932137     5.298247 # buck6d->(c3_c2h1@naph)|naph
       116    17     1   -0.09395     4.572022    12.932137     5.298247 # buck6d->(c3_c2h1@naph)|naph
       117    18     1   -0.09395    12.650428    12.932137     5.298247 # buck6d->(c3_c2h1@naph)|naph
       118    19     1   -0.09395    -8.357601     1.125762    12.425991 # buck6d->(c3_c2h1@naph)|naph
       119    20     1   -0.09395    -0.279195     1.125762    12.425991 # buck6d->(c3_c2h1@naph)|naph
       120    21     1   -0.09395     7.799211     1.125762    12.425991 # buck6d->(c3_c2h1@naph)|naph
       121    22     1   -0.09395    -8.357601     7.028949    12.425991 # buck6d->(c3_c2h1@naph)|naph
       122    23     1   -0.09395    -0.279195     7.028949    12.425991 # buck6d->(c3_c2h1@naph)|naph
       123    24     1   -0.09395     7.799211     7.028949    12.425991 # buck6d->(c3_c2h1@naph)|naph
       124    25     1   -0.09395    -8.357601    12.932137    12.425991 # buck6d->(c3_c2h1@naph)|naph
       125    26     1   -0.09395    -0.279195    12.932137    12.425991 # buck6d->(c3_c2h1@naph)|naph
       126    27     1   -0.09395     7.799211    12.932137    12.425991 # buck6d->(c3_c2h1@naph)|naph
       127     1     1   -0.09395   -13.208818     1.125762    19.553735 # buck6d->(c3_c2h1@naph)|naph
       128     2     1   -0.09395    -5.130412     1.125762    19.553735 # buck6d->(c3_c2h1@naph)|naph
       129     3     1   -0.09395     2.947994     1.125762    19.553735 # buck6d->(c3_c2h1@naph)|naph
       130     4     1   -0.09395   -13.208818     7.028949    19.553735 # buck6d->(c3_c2h1@naph)|naph
       131     5     1   -0.09395    -5.130412     7.028949    19.553735 # buck6d->(c3_c2h1@naph)|naph
       132     6     1   -0.09395     2.947994     7.028949    19.553735 # buck6d->(c3_c2h1@naph)|naph
       133     7     1   -0.09395   -13.208818    12.932137    19.553735 # buck6d->(c3_c2h1@naph)|naph
       134     8     1   -0.09395    -5.130412    12.932137    19.553735 # buck6d->(c3_c2h1@naph)|naph
       135     9     1   -0.09395     2.947994    12.932137    19.553735 # buck6d->(c3_c2h1@naph)|naph
       136    28     1   -0.09395     0.115653     3.073676     4.774604 # buck6d->(c3_c2h1@naph)|naph
       137    29     1   -0.09395     8.194059     3.073676     4.774604 # buck6d->(c3_c2h1@naph)|naph
       138    30     1   -0.09395    16.272465     3.073676     4.774604 # buck6d->(c3_c2h1@naph)|naph
       139    31     1   -0.09395     0.115653     8.976864     4.774604 # buck6d->(c3_c2h1@naph)|naph
       140    32     1   -0.09395     8.194059     8.976864     4.774604 # buck6d->(c3_c2h1@naph)|naph
       141    33     1   -0.09395    16.272465     8.976864     4.774604 # buck6d->(c3_c2h1@naph)|naph
       142    34     1   -0.09395     0.115653    14.880051     4.774604 # buck6d->(c3_c2h1@naph)|naph
       143    35     1   -0.09395     8.194059    14.880051     4.774604 # buck6d->(c3_c2h1@naph)|naph
       144    36     1   -0.09395    16.272465    14.880051     4.774604 # buck6d->(c3_c2h1@naph)|naph
       145    37     1   -0.09395    -4.735564     3.073676    11.902348 # buck6d->(c3_c2h1@naph)|naph
       146    38     1   -0.09395     3.342842     3.073676    11.902348 # buck6d->(c3_c2h1@naph)|naph
       147    39     1   -0.09395    11.421248     3.073676    11.902348 # buck6d->(c3_c2h1@naph)|naph
       148    40     1   -0.09395    -4.735564     8.976864    11.902348 # buck6d->(c3_c2h1@naph)|naph
       149    41     1   -0.09395     3.342842     8.976864    11.902348 # buck6d->(c3_c2h1@naph)|naph
       150    42     1   -0.09395    11.421248     8.976864    11.902348 # buck6d->(c3_c2h1@naph)|naph
       151    43     1   -0.09395    -4.735564    14.880051    11.902348 # buck6d->(c3_c2h1@naph)|naph
       152    44     1   -0.09395     3.342842    14.880051    11.902348 # buck6d->(c3_c2h1@naph)|naph
       153    45     1   -0.09395    11.421248    14.880051    11.902348 # buck6d->(c3_c2h1@naph)|naph
       154    46     1   -0.09395    -9.586781     3.073676    19.030093 # buck6d->(c3_c2h1@naph)|naph
       155    47     1   -0.09395    -1.508375     3.073676    19.030093 # buck6d->(c3_c2h1@naph)|naph
       156    48     1   -0.09395     6.570031     3.073676    19.030093 # buck6d->(c3_c2h1@naph)|naph
       157    49     1   -0.09395    -9.586781     8.976864    19.030093 # buck6d->(c3_c2h1@naph)|naph
       158    50     1   -0.09395    -1.508375     8.976864    19.030093 # buck6d->(c3_c2h1@naph)|naph
       159    51     1   -0.09395     6.570031     8.976864    19.030093 # buck6d->(c3_c2h1@naph)|naph
       160    52     1   -0.09395    -9.586781    14.880051    19.030093 # buck6d->(c3_c2h1@naph)|naph
       161    53     1   -0.09395    -1.508375    14.880051    19.030093 # buck6d->(c3_c2h1@naph)|naph
       162    54     1   -0.09395     6.570031    14.880051    19.030093 # buck6d->(c3_c2h1@naph)|naph
       163    28     1   -0.09395    -0.647972     3.930728     5.539158 # buck6d->(c3_c2h1@naph)|naph
       164    29     1   -0.09395     7.430434     3.930728     5.539158 # buck6d->(c3_c2h1@naph)|naph
       165    30     1   -0.09395    15.508840     3.930728     5.539158 # buck6d->(c3_c2h1@naph)|naph
       166    31     1   -0.09395    -0.647972     9.833915     5.539158 # buck6d->(c3_c2h1@naph)|naph
       167    32     1   -0.09395     7.430434     9.833915     5.539158 # buck6d->(c3_c2h1@naph)|naph
       168    33     1   -0.09395    15.508840     9.833915     5.539158 # buck6d->(c3_c2h1@naph)|naph
       169    34     1   -0.09395    -0.647972    15.737103     5.539158 # buck6d->(c3_c2h1@naph)|naph
       170    35     1   -0.09395     7.430434    15.737103     5.539158 # buck6d->(c3_c2h1@naph)|naph
       171    36     1   -0.09395    15.508840    15.737103     5.539158 # buck6d->(c3_c2h1@naph)|naph
       172    37     1   -0.09395    -5.499189     3.930728    12.666902 # buck6d->(c3_c2h1@naph)|naph
       173    38     1   -0.09395     2.579217     3.930728    12.666902 # buck6d->(c3_c2h1@naph)|naph
       174    39     1   -0.09395    10.657623     3.930728    12.666902 # buck6d->(c3_c2h1@naph)|naph
       175    40     1   -0.09395    -5.499189     9.833915    12.666902 # buck6d->(c3_c2h1@naph)|naph
       176    41     1   -0.09395     2.579217     9.833915    12.666902 # buck6d->(c3_c2h1@naph)|naph
       177    42     1   -0.09395    10.657623     9.833915    12.666902 # buck6d->(c3_c2h1@naph)|naph
       178    43     1   -0.09395    -5.499189    15.737103    12.666902 # buck6d->(c3_c2h1@naph)|naph
       179    44     1   -0.09395     2.579217    15.737103    12.666902 # buck6d->(c3_c2h1@naph)|naph
       180    45     1   -0.09395    10.657623    15.737103    12.666902 # buck6d->(c3_c2h1@naph)|naph
       181    46     1   -0.09395   -10.350406     3.930728    19.794646 # buck6d->(c3_c2h1@naph)|naph
       182    47     1   -0.09395    -2.272000     3.930728    19.794646 # buck6d->(c3_c2h1@naph)|naph
       183    48     1   -0.09395     5.806406     3.930728    19.794646 # buck6d->(c3_c2h1@naph)|naph
       184    49     1   -0.09395   -10.350406     9.833915    19.794646 # buck6d->(c3_c2h1@naph)|naph
       185    50     1   -0.09395    -2.272000     9.833915    19.794646 # buck6d->(c3_c2h1@naph)|naph
       186    51     1   -0.09395     5.806406     9.833915    19.794646 # buck6d->(c3_c2h1@naph)|naph
       187    52     1   -0.09395   -10.350406    15.737103    19.794646 # buck6d->(c3_c2h1@naph)|naph
       188    53     1   -0.09395    -2.272000    15.737103    19.794646 # buck6d->(c3_c2h1@naph)|naph
       189    54     1   -0.09395     5.806406    15.737103    19.794646 # buck6d->(c3_c2h1@naph)|naph
       190    28     2    0.05423    -1.022722     3.584140     6.862824 # buck6d->(c3_c3@naph)|naph
       191    29     2    0.05423     7.055684     3.584140     6.862824 # buck6d->(c3_c3@naph)|naph
       192    30     2    0.05423    15.134090     3.584140     6.862824 # buck6d->(c3_c3@naph)|naph
       193    31     2    0.05423    -1.022722     9.487327     6.862824 # buck6d->(c3_c3@naph)|naph
       194    32     2    0.05423     7.055684     9.487327     6.862824 # buck6d->(c3_c3@naph)|naph
       195    33     2    0.05423    15.134090     9.487327     6.862824 # buck6d->(c3_c3@naph)|naph
       196    34     2    0.05423    -1.022722    15.390515     6.862824 # buck6d->(c3_c3@naph)|naph
       197    35     2    0.05423     7.055684    15.390515     6.862824 # buck6d->(c3_c3@naph)|naph
       198    36     2    0.05423    15.134090    15.390515     6.862824 # buck6d->(c3_c3@naph)|naph
       199    37     2    0.05423    -5.873939     3.584140    13.990568 # buck6d->(c3_c3@naph)|naph
       200    38     2    0.05423     2.204467     3.584140    13.990568 # buck6d->(c3_c3@naph)|naph
       201    39     2    0.05423    10.282873     3.584140    13.990568 # buck6d->(c3_c3@naph)|naph
       202    40     2    0.05423    -5.873939     9.487327    13.990568 # buck6d->(c3_c3@naph)|naph
       203    41     2    0.05423     2.204467     9.487327    13.990568 # buck6d->(c3_c3@naph)|naph
       204    42     2    0.05423    10.282873     9.487327    13.990568 # buck6d->(c3_c3@naph)|naph
       205    43     2    0.05423    -5.873939    15.390515    13.990568 # buck6d->(c3_c3@naph)|naph
       206    44     2    0.05423     2.204467    15.390515    13.990568 # buck6d->(c3_c3@naph)|naph
       207    45     2    0.05423    10.282873    15.390515    13.990568 # buck6d->(c3_c3@naph)|naph
       208    46     2    0.05423   -10.725156     3.584140    21.118312 # buck6d->(c3_c3@naph)|naph
       209    47     2    0.05423    -2.646750     3.584140    21.118312 # buck6d->(c3_c3@naph)|naph
       210    48     2    0.05423     5.431656     3.584140    21.118312 # buck6d->(c3_c3@naph)|naph
       211    49     2    0.05423   -10.725156     9.487327    21.118312 # buck6d->(c3_c3@naph)|naph
       212    50     2    0.05423    -2.646750     9.487327    21.118312 # buck6d->(c3_c3@naph)|naph
       213    51     2    0.05423     5.431656     9.487327    21.118312 # buck6d->(c3_c3@naph)|naph
       214    52     2    0.05423   -10.725156    15.390515    21.118312 # buck6d->(c3_c3@naph)|naph
       215    53     2    0.05423    -2.646750    15.390515    21.118312 # buck6d->(c3_c3@naph)|naph
       216    54     2    0.05423     5.431656    15.390515    21.118312 # buck6d->(c3_c3@naph)|naph
       217    46     1   -0.09395     3.050211     4.447165     0.548747 # buck6d->(c3_c2h1@naph)|naph
       218    47     1   -0.09395    11.128617     4.447165     0.548747 # buck6d->(c3_c2h1@naph)|naph
       219    48     1   -0.09395    19.207024     4.447165     0.548747 # buck6d->(c3_c2h1@naph)|naph
       220    49     1   -0.09395     3.050211    10.350353     0.548747 # buck6d->(c3_c2h1@naph)|naph
       221    50     1   -0.09395    11.128617    10.350353     0.548747 # buck6d->(c3_c2h1@naph)|naph
       222    51     1   -0.09395    19.207024    10.350353     0.548747 # buck6d->(c3_c2h1@naph)|naph
       223    52     1   -0.09395     3.050211    16.253540     0.548747 # buck6d->(c3_c2h1@naph)|naph
       224    53     1   -0.09395    11.128617    16.253540     0.548747 # buck6d->(c3_c2h1@naph)|naph
       225    54     1   -0.09395    19.207024    16.253540     0.548747 # buck6d->(c3_c2h1@naph)|naph
       226    28     1   -0.09395    -1.801006     4.447165     7.676491 # buck6d->(c3_c2h1@naph)|naph
       227    29     1   -0.09395     6.277400     4.447165     7.676491 # buck6d->(c3_c2h1@naph)|naph
       228    30     1   -0.09395    14.355806     4.447165     7.676491 # buck6d->(c3_c2h1@naph)|naph
       229    31     1   -0.09395    -1.801006    10.350353     7.676491 # buck6d->(c3_c2h1@naph)|naph
       230    32     1   -0.09395     6.277400    10.350353     7.676491 # buck6d->(c3_c2h1@naph)|naph
       231    33     1   -0.09395    14.355806    10.350353     7.676491 # buck6d->(c3_c2h1@naph)|naph
       232    34     1   -0.09395    -1.801006    16.253540     7.676491 # buck6d->(c3_c2h1@naph)|naph
       233    35     1   -0.09395     6.277400    16.253540     7.676491 # buck6d->(c3_c2h1@naph)|naph
       234    36     1   -0.09395    14.355806    16.253540     7.676491 # buck6d->(c3_c2h1@naph)|naph
       235    37     1   -0.09395    -6.652223     4.447165    14.804235 # buck6d->(c3_c2h1@naph)|naph
       236    38     1   -0.09395     1.426183     4.447165    14.804235 # buck6d->(c3_c2h1@naph)|naph
       237    39     1   -0.09395     9.504589     4.447165    14.804235 # buck6d->(c3_c2h1@naph)|naph
       238    40     1   -0.09395    -6.652223    10.350353    14.804235 # buck6d->(c3_c2h1@naph)|naph
       239    41     1   -0.09395     1.426183    10.350353    14.804235 # buck6d->(c3_c2h1@naph)|naph
       240    42     1   -0.09395     9.504589    10.350353    14.804235 # buck6d->(c3_c2h1@naph)|naph
       241    43     1   -0.09395    -6.652223    16.253540    14.804235 # buck6d->(c3_c2h1@naph)|naph
       242    44     1   -0.09395     1.426183    16.253540    14.804235 # buck6d->(c3_c2h1@naph)|naph
       243    45     1   -0.09395     9.504589    16.253540    14.804235 # buck6d->(c3_c2h1@naph)|naph
       244    46     1   -0.09395     2.694370     4.077356     1.829497 # buck6d->(c3_c2h1@naph)|naph
       245    47     1   -0.09395    10.772776     4.077356     1.829497 # buck6d->(c3_c2h1@naph)|naph
       246    48     1   -0.09395    18.851182     4.077356     1.829497 # buck6d->(c3_c2h1@naph)|naph
       247    49     1   -0.09395     2.694370     9.980543     1.829497 # buck6d->(c3_c2h1@naph)|naph
       248    50     1   -0.09395    10.772776     9.980543     1.829497 # buck6d->(c3_c2h1@naph)|naph
       249    51     1   -0.09395    18.851182     9.980543     1.829497 # buck6d->(c3_c2h1@naph)|naph
       250    52     1   -0.09395     2.694370    15.883731     1.829497 # buck6d->(c3_c2h1@naph)|naph
       251    53     1   -0.09395    10.772776    15.883731     1.829497 # buck6d->(c3_c2h1@naph)|naph
       252    54     1   -0.09395    18.851182    15.883731     1.829497 # buck6d->(c3_c2h1@naph)|naph
       253    28     1   -0.09395    -2.156847     4.077356     8.957242 # buck6d->(c3_c2h1@naph)|naph
       254    29     1   -0.09395     5.921559     4.077356     8.957242 # buck6d->(c3_c2h1@naph)|naph
       255    30     1   -0.09395    13.999965     4.077356     8.957242 # buck6d->(c3_c2h1@naph)|naph
       256    31     1   -0.09395    -2.156847     9.980543     8.957242 # buck6d->(c3_c2h1@naph)|naph
       257    32     1   -0.09395     5.921559     9.980543     8.957242 # buck6d->(c3_c2h1@naph)|naph
       258    33     1   -0.09395    13.999965     9.980543     8.957242 # buck6d->(c3_c2h1@naph)|naph
       259    34     1   -0.09395    -2.156847    15.883731     8.957242 # buck6d->(c3_c2h1@naph)|naph
       260    35     1   -0.09395     5.921559    15.883731     8.957242 # buck6d->(c3_c2h1@naph)|naph
       261    36     1   -0.09395    13.999965    15.883731     8.957242 # buck6d->(c3_c2h1@naph)|naph
       262    37     1   -0.09395    -7.008064     4.077356    16.084986 # buck6d->(c3_c2h1@naph)|naph
       263    38     1   -0.09395     1.070342     4.077356    16.084986 # buck6d->(c3_c2h1@naph)|naph
       264    39     1   -0.09395     9.148748     4.077356    16.084986 # buck6d->(c3_c2h1@naph)|naph
       265    40     1   -0.09395    -7.008064     9.980543    16.084986 # buck6d->(c3_c2h1@naph)|naph
       266    41     1   -0.09395     1.070342     9.980543    16.084986 # buck6d->(c3_c2h1@naph)|naph
       267    42     1   -0.09395     9.148748     9.980543    16.084986 # buck6d->(c3_c2h1@naph)|naph
       268    43     1   -0.09395    -7.008064    15.883731    16.084986 # buck6d->(c3_c2h1@naph)|naph
       269    44     1   -0.09395     1.070342    15.883731    16.084986 # buck6d->(c3_c2h1@naph)|naph
       270    45     1   -0.09395     9.148748    15.883731    16.084986 # buck6d->(c3_c2h1@naph)|naph
       271    14     1   -0.09395     4.154856     5.781105     4.774604 # buck6d->(c3_c2h1@naph)|naph
       272    15     1   -0.09395    12.233262     5.781105     4.774604 # buck6d->(c3_c2h1@naph)|naph
       273    13     1   -0.09395    20.311668     5.781105     4.774604 # buck6d->(c3_c2h1@naph)|naph
       274    17     1   -0.09395     4.154856    11.684292     4.774604 # buck6d->(c3_c2h1@naph)|naph
       275    18     1   -0.09395    12.233262    11.684292     4.774604 # buck6d->(c3_c2h1@naph)|naph
       276    16     1   -0.09395    20.311668    11.684292     4.774604 # buck6d->(c3_c2h1@naph)|naph
       277    11     1   -0.09395     4.154856    17.587480     4.774604 # buck6d->(c3_c2h1@naph)|naph
       278    12     1   -0.09395    12.233262    17.587480     4.774604 # buck6d->(c3_c2h1@naph)|naph
       279    10     1   -0.09395    20.311668    17.587480     4.774604 # buck6d->(c3_c2h1@naph)|naph
       280    23     1   -0.09395    -0.696361     5.781105    11.902348 # buck6d->(c3_c2h1@naph)|naph
       281    24     1   -0.09395     7.382045     5.781105    11.902348 # buck6d->(c3_c2h1@naph)|naph
       282    22     1   -0.09395    15.460451     5.781105    11.902348 # buck6d->(c3_c2h1@naph)|naph
       283    26     1   -0.09395    -0.696361    11.684292    11.902348 # buck6d->(c3_c2h1@naph)|naph
       284    27     1   -0.09395     7.382045    11.684292    11.902348 # buck6d->(c3_c2h1@naph)|naph
       285    25     1   -0.09395    15.460451    11.684292    11.902348 # buck6d->(c3_c2h1@naph)|naph