  36  432
1 1
    28.922612814785793    16.519106930186410   -18.677695300835310
    16.519106930186410    52.413285457175839     6.786325569757615
   -18.677695300835310     6.786325569757615    59.962747410796403
1 2
     0.000001360335925     0.000295207017963    -0.001135706986234
     0.000295207017963     0.000780457175926     0.000595076541170
    -0.001135706986234     0.000595076541170     0.000764602646102
1 3
    -0.000137632399363    -0.005094305291885    -0.002952725352227
     0.001535129718730     0.007839957175926     0.005608768478460
     0.004054972682867     0.009780355585472     0.004735683571253
1 4
    -0.000313378133129    -0.000260527578531    -0.000599950028622
    -0.000272324653601    -0.000109042824074     0.000129065353336
    -0.000671645130308     0.000459335315927     0.000754289577866
1 5
    -0.000137632399363     0.001535129718730     0.004054972682867
    -0.005094305291885     0.007839957175926     0.009780355585472
    -0.002952725352227     0.005608768478460     0.004735683571253
1 6
    -0.000313378133129    -0.000272324653601    -0.000671645130308
    -0.000260527578531    -0.000109042824074     0.000459335315927
    -0.000599950028622     0.000129065353336     0.000754289577866
1 7
    -0.001857293280358    -0.003765221244767    -0.001092463803084
    -0.003765221244767    -0.005933042824074    -0.000608347427459
    -0.001092463803084    -0.000608347427459     0.010298413510963
1 8
    -0.003030588473098     0.000349744478560     0.001544245087938
     0.000349744478560    -0.000551042824074    -0.000915830765347
     0.001544245087938    -0.000915830765347    -0.001844178172635
1 9
     0.000143687434487     0.000349802029204     0.001200159552844
     0.000185906023880    -0.000179792824074    -0.000561085363610
     0.000420930034132    -0.000440386924991    -0.001385272921591
1 10
    -0.001096814683221     0.001410895046544     0.000570219766701
     0.000394916351490    -0.000280542824074    -0.000241715248874
     0.000426296851832    -0.000481157576455    -0.000826165961636
1 11
     0.000143687434487     0.000185906023880     0.000420930034132
     0.000349802029204    -0.000179792824074    -0.000440386924991
     0.001200159552844    -0.000561085363610    -0.001385272921591
1 12
    -0.001096814683221     0.000394916351490     0.000426296851832
     0.001410895046544    -0.000280542824074    -0.000481157576455
     0.000570219766701    -0.000241715248874    -0.000826165961636
1 13
   -14.715816661378971   -11.200227362355928     8.257753331663480
    -9.364576391079451   -19.654491177083329     5.422002951064940
    10.153191679536086     9.314582815993727   -17.685576741957181
1 14
    -0.001028486454924     0.001229512176191     0.000659537269254
     0.000123365906231    -0.000758177083333     0.000449292212095
    -0.000186824772754     0.000534256659176    -0.000020077788482
1 15
     0.002936713007949     0.004795430786569    -0.000485798403961
    -0.003165375168677    -0.003218427083333     0.001704939872708
    -0.004627100156763    -0.005153813604813     0.002684521139472
1 16
    -0.000378982064367    -0.000109094103948    -0.000633774754386
     0.000257869788905     0.000147822916667    -0.000100167217335
    -0.000262240372400    -0.000551973842105    -0.000549139362371
1 17
    -0.010007723985759    -0.001612361230356    -0.003477923071899
    -0.017695011467969    -0.006129427083333    -0.020259995007466
    -0.015632824027678    -0.007466909862990    -0.010543213338304
1 18
    -0.000347046387492     0.001461461691523     0.000168983888126
     0.000141008279430    -0.000378677083333    -0.000437555780360
     0.000929620667550    -0.000832774992830    -0.000698413572247
1 19
     0.001197833130184     0.000862921090770     0.000033953413584
     0.000978556733973     0.001293822916667    -0.001534578470776
    -0.001817861096048    -0.010005277977737    -0.004305667809288
1 20
    -0.000588771404693     0.001477363420360    -0.001121557995394
    -0.000245688392867     0.000028822916667     0.000394682996037
    -0.000109142187805     0.000091421372923     0.000231674456331
1 21
     0.000247527164086    -0.000079630038818     0.000389659589511
     0.000230924929975     0.000540572916667     0.000367633807606
     0.000217951589028     0.000950084265715     0.000180326936095
1 22
    -0.000822557922876    -0.001341604577612    -0.000717921999831
     0.000269940293608     0.000202072916667     0.000230248036875
     0.000041881049793     0.000413659367248     0.000003103092230
1 23
     0.000106761692682    -0.001081699705752     0.000019473599961
    -0.000078676815496     0.000511822916667     0.000856229168556
     0.001865975725023     0.001896683239772     0.001734037531586
1 24
    -0.000434128051695     0.000648987332891    -0.000567273636429
     0.000465619652966    -0.000492427083333     0.000584632093962
    -0.000133322375683     0.000592453550235     0.000688817846396
1 25
    -0.906095313366870     0.006019000919537     3.484463044966835
    -0.914309714467529     2.166122488425925     3.764567647861542
     2.382326525080951     1.647239969536880    -2.852241896369387
1 26
     0.000013671777608    -0.000870239188400    -0.001776988055155
    -0.000118059127647     0.000578488425926     0.000639511925047
    -0.000258444218179    -0.000261688611093     0.000758350689108
1 27
     0.000783955179519     0.002692688611482     0.000768762274015
     0.000602677773923    -0.001629511574074    -0.004807817400311
    -0.000298055061111    -0.003252778707082    -0.004539452938047
1 28
    -0.000084120216029    -0.000356689592650    -0.000263481226291
    -0.000056144590601     0.000125988425926     0.000311273640538
    -0.000044120558884     0.000359534953628     0.000546679589144
1 29
     0.002981192916846     0.004820353906675    -0.003454508820451
     0.005866997564897     0.008884238425926    -0.006792912117077
     0.008532799119054     0.007298244165062    -0.009716894522152
1 30
     0.000015766000543    -0.000694862127540    -0.000721055752068
    -0.000195820324326     0.000543738425926     0.001420362291065
    -0.000012297981384     0.000468080960338     0.001416980746759
1 31
    -0.003906915566137    -0.002316621811451     0.003729267052518
    -0.003989174280152    -0.006202261574074     0.002700430147164
     0.002552842857534     0.003115883015205     0.012378655876636
1 32
     0.000117464183758    -0.000108758400915     0.000976098369175
    -0.000147511700921     0.000404988425926    -0.000267912266272
    -0.000669191993837    -0.001231760848054     0.000433498719544
1 33
     0.000075720912307     0.000269730777276     0.000399503469654
     0.000076885037012    -0.000310761574074    -0.000278469294388
     0.000266342341084     0.000203354047199     0.000199784847334
1 34
     0.000089735889596    -0.000049487211040     0.000417114432854
     0.000183853742462    -0.000110011574074    -0.000104315051695
     0.000021970327583     0.000076979618955    -0.000426398260581
1 35
     0.000121105139757     0.001118340937245     0.000594107402718
     0.000394216029664    -0.000524011574074    -0.001319941234741
     0.000242990829754    -0.002252801216040    -0.001949574242241
1 36
    -0.000157340900227    -0.000063869490749     0.000333518960501
     0.000137040312834    -0.000324511574074    -0.000435742390439
     0.000243289033540    -0.000313980014526    -0.000611855428976
1 37
     0.000441293793531    -0.000044129758429    -0.003203493420690
     0.007606753884957     0.007238022569444    -0.008464836307344
    -0.014762905689022    -0.025916546681866    -0.007841349536199
1 38
    -0.000229071284459     0.000527657156941    -0.000589623088557
    -0.000174589550040     0.000594772569444    -0.000145671927403
    -0.000259214354725    -0.000277381539169    -0.000057050687826
1 39
     0.000561058480865     0.000456871925526     0.000570404665183
     0.000263191975501     0.000319772569444     0.000176015269640
    -0.000173506243386     0.000738726194969     0.000015535895603
1 40
    -0.000395278866112    -0.000640343911968    -0.000254367133945
     0.000174082351695     0.000131022569444     0.000151472125411
    -0.000314415765662    -0.000072206799381    -0.000340767792064
1 41
    -0.000037019249404    -0.002578078057500    -0.000103950319880
     0.000118524430617     0.001093522569444     0.001016753492541
     0.003802247201590     0.005114846031892     0.001839218589995
1 42
    -0.000599227578592     0.000410690353070    -0.000295253721382
     0.000260794200046    -0.000176727430556     0.000419829243077
    -0.000205617993714     0.001297064948322     0.000548060334766
1 43
     0.974131636847916     0.274791260671318    -0.615780667649060
     0.817265139226232     0.616467272569444    -1.770112534277821
    -0.014050890268500    -0.535405914860827    -0.030433220667105
1 44
    -0.001060056016547     0.002435423946328     0.000747486722978
     0.000078749809237    -0.000452727430556     0.000416776606014
     0.000882479509728    -0.000054830530752     0.000297104432845
1 45
     0.000982510251461     0.000790260079524    -0.000663634417142
     0.000205701873241     0.001916522569444     0.000773427961440
    -0.000463060727685     0.000714330134065     0.000712441572729
1 46
    -0.000598196930873    -0.000288712147006    -0.000655563701741
     0.000275974414882    -0.000059477430556    -0.000002363146753
    -0.000170565981318    -0.000096235640487    -0.000074935064452
1 47
     0.009648186228973     0.003858905637020    -0.002014000254015
     0.007963022360173     0.002368772569444    -0.001776381893992
     0.002485267179319    -0.003027374314982     0.003688573681588
1 48
    -0.000105620585378     0.001985958017118     0.000207754741902
     0.001213820893429    -0.001195977430556    -0.000861557664679
     0.000542759428765    -0.001819284670819    -0.000307338005887
1 49
     0.005089555368069    -0.019316005631383    -0.004085004675529
    -0.015967257705781    -0.027664300347222     0.005941136654064
    -0.010113949801287     0.064269469389261     0.006221398555707
1 50
     0.000452090451611     0.001305631560309    -0.000662522744999
    -0.000929805397737    -0.001032300347222    -0.000102520070438
     0.000170052627834     0.002192999521593    -0.000630090378756
1 51
     0.000506298197920    -0.000252740901733     0.000885909308738
     0.000295303652903    -0.000010800347222    -0.000319097253864
    -0.000824804834103    -0.000466939932379     0.000035331761524
1 52
     0.000026455662495    -0.000219930522715    -0.000108490586269
     0.000102861567837    -0.000081800347222     0.000013214026152
    -0.000345715759673     0.000549125961851    -0.000342715532900
1 53
     0.003918341522187     0.001953254222153    -0.000626690410483
     0.000795051529755     0.000227449652778    -0.001877245660529
    -0.005984260844648    -0.007265950290712     0.003576370492844
1 54
    -0.000453815978927     0.000496657785016    -0.000438210163072
    -0.000036300542480    -0.000442550347222    -0.000013002531510
    -0.000754757733703     0.000047184881851    -0.000718662121378
1 55
    -0.052350603824030     0.563798522834374     0.646030086972225
    -0.032502214884846     1.027225449652778     1.149853783456537
     0.035419187893076    -0.099821165913974    -0.195248510660969
1 56
    -0.001931302308031    -0.000116783678546    -0.001748962853226
     0.000563513187049    -0.000106800347222     0.000537670967648
     0.001677044241685    -0.000026570091583     0.000383295512126
1 57
     0.001080757151568     0.001191089700320     0.000782523271542
     0.000724353473729    -0.001583300347222     0.000510599344000
    -0.000319287490366    -0.001467128401509     0.000285789271412
1 58
    -0.000848451476947     0.000221089376887    -0.000523189893038
     0.000411353196663     0.000089949652778     0.000101642293748
    -0.000219240885553    -0.000229915896037     0.000572835084688
1 59
    -0.000451958329841    -0.003070163969662     0.001277343804754
    -0.000098622299960    -0.003038300347222    -0.000940995412680
     0.001493767998552     0.000102755397562     0.003139901458295
1 60
    -0.000786709475021    -0.000302149629489    -0.000495703933432
     0.001207828696996     0.000392199652778     0.000319683793306
     0.000982233565869     0.000409750683924     0.000449688357645
1 61
    -0.009225532429091     0.019019692652830    -0.019505999212405
    -0.012186107019926    -0.007779792824074     0.003254981315080
    -0.000010248492002    -0.003860874046196     0.020586013703349
1 62
    -0.000448176178405     0.000442169950539    -0.001090520856946
    -0.000135131933465    -0.000629042824074     0.001352859895644
    -0.001107634399208    -0.000516143246640     0.000784817777523
1 63
     0.000557690616981     0.000799423011234    -0.000457998352838
    -0.000799423011234    -0.000375042824074     0.000391158500037
    -0.000457998352838    -0.000391158500037     0.000481538946505
1 64
    -0.000058672690737     0.000222518663191    -0.000304549110795
    -0.000222518663191    -0.000210542824074     0.000325928680651
    -0.000304549110795    -0.000325928680651     0.000816127018014
1 65
    -0.009225532429091     0.012186107019926    -0.000010248492002
    -0.019019692652830    -0.007779792824074     0.003860874046196
    -0.019505999212405    -0.003254981315080     0.020586013703349
1 66
    -0.000448176178405     0.000135131933465    -0.001107634399208
    -0.000442169950539    -0.000629042824074     0.000516143246640
    -0.001090520856946    -0.001352859895644     0.000784817777523
1 67
    -0.002018451912746     0.002323774162125     0.000453631397723
    -0.006016802697022     0.008062957175926    -0.001530934592210
     0.001530510622864     0.000594924868741     0.004197387781018
1 68
    -0.000992543670899     0.015850177874964     0.001216988557535
    -0.006933914329859     0.007446457175926     0.008614658281823
    -0.005074757452268     0.004526931995159     0.003150908147931
1 69
     0.000057864532438    -0.000160739613572     0.000249282826760
     0.000160739613572     0.000021957175926    -0.000223566441026
     0.000249282826760     0.000223566441025     0.000078707843269
1 70
    -0.000474673452819    -0.000472988663740     0.000477724282938
     0.000472988663740     0.000221457175926    -0.000361935828602
     0.000477724282938     0.000361935828602    -0.000331702504251
1 71
    -0.002018451912746     0.006016802697022     0.001530510622864
    -0.002323774162125     0.008062957175926    -0.000594924868741
     0.000453631397723     0.001530934592210     0.004197387781018
1 72
    -0.000992543670899     0.006933914329859    -0.005074757452268
    -0.015850177874964     0.007446457175926    -0.004526931995159
     0.001216988557535    -0.008614658281823     0.003150908147931
1 73
     0.007609240240971     0.004592154815473     0.006454025428781
    -0.004777797114803     0.016927822916667     0.003173801971867
     0.008187921957781    -0.004182447645235    -0.015811864880046
1 74
    -0.000222698425907    -0.000973608610054     0.000340418289951
    -0.000450581581895     0.000586322916667    -0.000106013860988
    -0.000531253624354     0.001065977269869    -0.000691993323507
1 75
     0.001051028541909    -0.000801139757335     0.000704562292269
    -0.000674814362066     0.000187322916667    -0.001244604980683
     0.000056742137864    -0.000404647465620    -0.000125179298818
1 76
    -0.000105494332181    -0.000270955960535     0.000054728581095
    -0.000187278277258     0.000237072916667    -0.000371933658271
    -0.000428061110894     0.000583710291579    -0.000447491536075
1 77
     0.026385305708416    -0.020758902276799    -0.014024767417851
    -0.033320800478920     0.061072322916667     0.033776459905080
    -0.000877393603666    -0.001760108896266     0.001762846081645
1 78
    -0.000279455931722    -0.000859637931710     0.000255812122832
     0.000232223899850    -0.000649427083333    -0.000375648777138
    -0.000633175777426    -0.001723693196490    -0.000905043655479
1 79
     0.000157922305962     0.000769764480766    -0.002059195852910
     0.002057264964408    -0.000396177083333    -0.002529544809228
     0.001481589369184    -0.000300529877490     0.001372214687856
1 80
     0.001413027180406     0.002206432694653    -0.013861611178685
     0.002540545428635     0.001338572916667    -0.007425537876722
     0.004035660413999    -0.004075848917712    -0.000720301720588
1 81
     0.000207207672910    -0.000010132301188     0.000314054246128
    -0.000188698288165     0.000103572916667     0.000098320178179
    -0.000101673876983     0.000138576044108     0.000188877420071
1 82
    -0.000540595236520     0.000728333744981    -0.000677134018475
     0.000493690379654    -0.000043677083333     0.000485790904390
     0.000517651651468    -0.000193797027273     0.000673932593460
1 83
     0.002435775204853    -0.003110436279034    -0.002783208339734
     0.001556348510540    -0.002150927083333    -0.000913059817614
     0.005170469537394     0.009725560112614    -0.003887935840742
1 84
    -0.002507475084237    -0.002495693425745    -0.007162796562212
     0.013914903477131    -0.010439677083333    -0.028071671677180
     0.006628438628975     0.003678207531211    -0.002171763449939
1 85
     0.001963014875458    -0.004734458741908    -0.002075998945513
     0.002644117064564     0.000538488425926    -0.007415144286907
     0.000521219706053     0.001693908257175    -0.002978093814342
1 86
    -0.000177281539461     0.000042154117607     0.000176698758593
     0.000091925695846    -0.000561261574074     0.000074369220829
    -0.000071506113888     0.001320816337642    -0.000655206486925
1 87
     0.000049031015737     0.000238542182206     0.000034887045063
    -0.000184563872368    -0.000378761574074     0.000720323630922
    -0.000466782474906     0.000524605783657     0.000342108256668
1 88
    -0.000008994570081     0.000251371326339    -0.000303247319987
    -0.000049744229778    -0.000298261574074     0.000321303674451
    -0.000222165762139    -0.000104923248159     0.000277588852275
1 89
    -0.007661336891798     0.020922271579347     0.003034714906199
     0.023589647842687    -0.051526261574074    -0.005003684792904
     0.000125074637783    -0.017765444894734     0.002912927633350
1 90
     0.000448764554802     0.000401828338648    -0.000769184159749
     0.000563445836347     0.000852988425926     0.000075931485506
     0.000468964637544     0.000393538044904     0.000107282605066
1 91
    -0.000221331620775     0.001600083915966     0.003246432778993
     0.000903685292327     0.008802988425926     0.007442419891861
     0.000285303188718    -0.001858674287357     0.002996049428677
1 92
     0.015944037073434    -0.017965832225216     0.008816160793194
    -0.006631737714530     0.000933488425926    -0.001749673882076
    -0.000769805435819     0.006089732459931    -0.001775805065114
1 93
     0.000163770172917    -0.000011931848619    -0.000000581050494
     0.000198554996203    -0.000064511574074    -0.000358248531769
     0.000208329840502     0.000025105153212    -0.000390050248359
1 94
    -0.000441837032914    -0.000061313125638     0.000400250351749
     0.000251661056592     0.000266988425926    -0.000385325534405
     0.000436046009043     0.000411499592302    -0.000980820841503
1 95
    -0.002635815552047     0.008328251153809     0.004020296150536
     0.000299989361360     0.011718988425926    -0.000053294371448
     0.003715998190581    -0.007034558363737     0.008796050309472
1 96
     0.008470567633654     0.000512806467979     0.007282394153659
     0.028806075976265     0.009752738425926     0.006217203981190
     0.005119014835598     0.000435619135065    -0.006208175807462
1 97
     0.001424448794325     0.000852484192211    -0.004457884199056
     0.005411011627059    -0.000473227430556    -0.018378425570523
     0.004017298960816    -0.001890972200379    -0.004542995402318
1 98
    -0.003504921429022     0.005555810240048     0.002628578732328
     0.004992685341438    -0.003562477430556    -0.004381017241292
     0.001906738460596    -0.001716029495670    -0.003032796380795
1 99
     0.000463195852177     0.000006896880679     0.000273853375202
    -0.000313527724434    -0.000390227430556     0.000145278887452
    -0.000073179375833    -0.000156000771267     0.000128893231400
1 100
    -0.000689568405463     0.000517884030886    -0.000466741334729
     0.000502501484382    -0.000262227430556     0.000558749406651
     0.001093568369607    -0.000023651492471     0.000872577382860
1 101
    -0.007563298774123    -0.010126790593649     0.022189992645329
    -0.006229115011462    -0.017726477430556     0.013342382076115
     0.001273746704208     0.020336541705482    -0.005903840060631
1 102
     0.000931775168708     0.005797496394115     0.009212742218144
     0.004923340746710     0.016018772569444     0.010892986774693
    -0.000892691660731     0.002443154408866     0.000931760313563
1 103
    -0.003785648872865     0.002913030204148    -0.001415267076096
    -0.002678244900687     0.002528522569444     0.001437973249689
     0.004853243123693    -0.001156349465044    -0.000193692623746
1 104
     0.000154284577602    -0.001842080512889     0.001026340735687
     0.000129747988601    -0.000747727430556     0.000688883747058
    -0.000111085765512     0.001736947307239    -0.001371390775754
1 105
     0.000811656832126    -0.000422535490836     0.000350815442756
    -0.001018080091846     0.000796022569444    -0.000776183011467
     0.000156522326361     0.000231002797661    -0.000179198675927
1 106
    -0.000074329086725    -0.000238629967623     0.000005575806144
    -0.000262666570557     0.000314022569444    -0.000291854344847
    -0.000441392467932     0.000386907547635    -0.000341138749125
1 107
     0.000959892196003     0.001093654243691     0.000816091955797
     0.002150571432207     0.000576272569444    -0.002919634509524
    -0.002404076486167     0.009276740362148    -0.003299061263181
1 108
     0.000599108253556    -0.000947342509521    -0.000485501225347
     0.000962183312344    -0.002300227430556     0.000125478826794
    -0.001660266081842    -0.003393759723364     0.001034692752078
1 109
    -0.002638348610914    -0.002334440255180     0.002403694964169
    -0.007355858417462    -0.006626550347222     0.006406388902448
    -0.012743673290802     0.005659546955955    -0.001107492673730
1 110
     0.001679176101688     0.006684757391777     0.001746196134460
    -0.000896265752691    -0.005441050347222     0.002816389418734
     0.002887225187986    -0.005340845638051    -0.000316502921830
1 111
     0.000698041563349    -0.000148250500572    -0.000008639855233
    -0.000503609291150     0.000112699652778    -0.000411935738020
     0.000112921764421    -0.000177993244140    -0.000702847921745
1 112
    -0.000401783962547    -0.000069501468835    -0.000058727115027
    -0.000073390308374     0.000352449652778     0.000040467703565
     0.000570746319330     0.000509584792463    -0.000029275029850
1 113
     0.010864399878097    -0.028609761262740    -0.023022892872034
    -0.006323418161671    -0.022583800347222     0.003833372237827
     0.004027996080715    -0.020626758918122    -0.029731694638882
1 114
     0.001073463512551    -0.006229851305816    -0.001331262746246
    -0.002139612445302    -0.008491550347222     0.015631732830025
    -0.007980817583008     0.014170107532835     0.000717244771513
1 115
     0.004002336369439    -0.003250861598355    -0.004652271710341
     0.000989046291820     0.002214699652778    -0.003730403531331
     0.000685074065645     0.000733648145348     0.001777993718080
1 116
    -0.001726791104338     0.001363876255580     0.001191445113086
    -0.000709798321055     0.000752949652778     0.001847161454991
     0.001521865870277    -0.001811631582328    -0.000961306984371
1 117
     0.000329123903824     0.000041830952087     0.000146998256680
    -0.000028923168728    -0.000601550347222    -0.000103344529587
     0.000342910664152    -0.000027377454964    -0.000068832497708
1 118
    -0.000173331983131     0.000024924182648    -0.000245260454162
     0.000054172875747    -0.000177050347222     0.000185825948936
     0.000062539601990    -0.000149722396266     0.000067567717452
1 119
     0.001415376268371    -0.000523954115716    -0.001209635346588
    -0.001214443092615     0.001463699652778     0.002335590058061
     0.001590996879403    -0.001953276004894     0.001346392509442
1 120
    -0.001224276911644     0.001276122382760    -0.000363766805989
    -0.004777869571304     0.001566199652778    -0.001342715012903
    -0.005439677709610    -0.000529780489656    -0.001681552986628
1 121
    -0.000069426168956    -0.000396806231651    -0.000870618320324
    -0.000396806231651     0.000144957175926     0.000050281789070
    -0.000870618320324     0.000050281789070     0.000262933593393
1 122
     0.002024975315515    -0.000425761147876    -0.001352477292224
    -0.000425761147876     0.000509957175926     0.001203053877429
    -0.001352477292224     0.001203053877429     0.001005710514387
1 123
    -0.000264355663355    -0.000034486135400    -0.000596643290369
    -0.000034486135400     0.000347457175926     0.000524883255548
    -0.000596643290369     0.000524883255548     0.000007254001473
1 124
     0.000287970320690    -0.000787054275767     0.000986319080059
    -0.000787054275767     0.001105957175926     0.002160573189001
     0.000986319080059     0.002160573189001    -0.001702364537119
1 125
    -0.000089755794106     0.000279084548885    -0.001550701332394
     0.000279084548885    -0.001950542824074     0.001996303941838
    -0.001550701332394     0.001996303941838    -0.001483478322795
1 126
    -0.027253288503957    -0.035116040344531    -0.020634666143318
    -0.035116040344531    -0.030744042824074    -0.017926389180583
    -0.020634666143318    -0.017926389180583    -0.008828251035625
1 127
    -0.002283300216049     0.000309795647007     0.000941372741812
     0.000309795647007    -0.000304542824074    -0.000164029611128
     0.000941372741812    -0.000164029611128    -0.000820946216736
1 128
    -0.000098437454454    -0.000740656742197    -0.000458899299172
    -0.000740656742197     0.004039957175926     0.002777800210613
    -0.000458899299172     0.002777800210613     0.001840622350733
1 129
    -0.000784644232097     0.000410755541560     0.000434364542362
     0.000410755541560    -0.001239542824074    -0.000349796187016
     0.000434364542362    -0.000349796187016    -0.000588165504846
1 130
    -0.001935615653837    -0.001446818057313    -0.001569352895389
    -0.001446818057313    -0.000627042824074     0.000241384417520
    -0.001569352895389     0.000241384417520     0.002139910316769
1 131
    -0.001410112290398     0.001673447701335     0.001498324794343
     0.001673447701335    -0.000753042824074    -0.001335769071522
     0.001498324794343    -0.001335769071522    -0.000315546276403
1 132
    -0.324010422368949    -0.669460851320759     0.077991858248299
    -0.669460851320759    -1.226521542824074     0.094982594984626
     0.077991858248299     0.094982594984626    -0.027737299279469
1 133
    -0.000563470415651     0.002333376999346     0.001048210928230
    -0.000701769987464     0.000475322916667    -0.000224126110401
     0.000701544511223     0.000673820360610    -0.000466325497578
1 134
    -0.000174651828578    -0.001959247213274     0.000836515463135
    -0.000571834716204    -0.000553927083333    -0.000919788835260
    -0.002335773515516    -0.001287428332204    -0.002479039836497
1 135
    -0.000226229606340    -0.000020437117662    -0.000229208586816
     0.000048825702198     0.000028572916667     0.000426841711303
    -0.000590069239005    -0.000645730926891    -0.000403387506278
1 136
     0.000149374605359    -0.000076903026933     0.000114566151197
    -0.000499338548512    -0.001356927083333    -0.000467411992732
    -0.000735555113588    -0.000873670101627    -0.000039604404175
1 137
    -0.001151014426612     0.000735294958416    -0.000775877184154
     0.002822289133021     0.000205322916667    -0.000137539097016
    -0.002780211851882     0.000645791537447    -0.000019865750558
1 138
    -0.004793446688342     0.021571307369185     0.010032530929264
    -0.000282605761648     0.020714072916667    -0.001016768713110
     0.001983452502519     0.011746874343584    -0.000219128054468
1 139
    -0.000611392083819     0.001688294615457    -0.000762793052896
     0.000166023281294    -0.000184927083333     0.000052818790937
     0.000008924256600    -0.000256306488977     0.000594474599155
1 140
     0.000616983466274     0.003358345411417    -0.002997033941520
    -0.006483934859375     0.001136572916667    -0.005120895513759
    -0.003657343266099    -0.004004605665788    -0.000598911378597
1 141
    -0.000401528006807    -0.000587516102559    -0.000872325437346
     0.000647665607086     0.000759822916667     0.000164083934974
     0.000228635286774     0.000485389006155     0.000351006293240
1 142
     0.001242870149783     0.000366831151892    -0.001764198831101
     0.000557749996207     0.000433572916667    -0.000871211697022
     0.000125146835603    -0.000970365298320    -0.000866117722484
1 143
    -0.001090301791693    -0.000904353055016    -0.000637916102817
     0.000108614126595    -0.000692927083333     0.000803579331514
     0.001151135515723    -0.000656026132385     0.000258310221970
1 144
     0.240792058141753     0.063104060678635    -0.613625870025415
     0.636072707431317     0.083164572916667    -1.182745374104885
    -0.011751758639351     0.033908541208138    -0.008622131488864
1 145
     0.000220043738576    -0.001755492877788    -0.001876188718317
    -0.000206989012301     0.000074988425926     0.000431745506177
    -0.000480225776905     0.000192374255756     0.001557944487442
1 146
     0.000469048798654     0.000788183542593    -0.000674426787573