432  
54   

1    
  0.0099994036661494   0.0000000000000000  -0.0001092076984377
  -0.2937781800   -0.1663167200    0.1955385700
  -0.0003914700    0.0003884200    0.0001918000
  -0.0003896100    0.0004429300    0.0002102900
  -0.0003882900    0.0003937500    0.0001865700
  -0.0003901800    0.0003761900    0.0001402800
  -0.0003884300    0.0003937400    0.0001872300
  -0.0003737100    0.0004276800    0.0001917700
  -0.0003603100    0.0003872900    0.0001644400
  -0.0003928000    0.0003874000    0.0001680100
  -0.0003800800    0.0003766600    0.0001743700
  -0.0003925000    0.0003891900    0.0001759900
  -0.0003802100    0.0003871000    0.0001757900
   0.1484728100    0.1149112800   -0.0866076900
  -0.0007698300   -0.0005130200   -0.0000168600
  -0.0008097500   -0.0005494400   -0.0000054200
  -0.0007762800   -0.0004998400   -0.0000041000
  -0.0006806200   -0.0004855900    0.0000234100
  -0.0007764300   -0.0005153700   -0.0000120800
  -0.0007922900   -0.0005107000   -0.0000111400
  -0.0007736600   -0.0005157400    0.0000011700
  -0.0007825500   -0.0004998600   -0.0000141300
  -0.0007715700   -0.0004872600   -0.0000030600
  -0.0007807900   -0.0004896300   -0.0000102000
  -0.0007755400   -0.0005072600   -0.0000046200
   0.0090901100   -0.0000067400   -0.0353867400
  -0.0002210600   -0.0002104300   -0.0000466800
  -0.0002287200   -0.0002463700   -0.0000727900
  -0.0002200200   -0.0002156400   -0.0000620000
  -0.0002503600   -0.0002668800   -0.0000301000
  -0.0002208900   -0.0002121200   -0.0000576000
  -0.0001814900   -0.0001961200   -0.0000996900
  -0.0002220700   -0.0002183900   -0.0000746100
  -0.0002216000   -0.0002220600   -0.0000686600
  -0.0002216200   -0.0002188300   -0.0000690400
  -0.0002218500   -0.0002306200   -0.0000711400
  -0.0002192800   -0.0002186100   -0.0000682600
  -0.0001990700   -0.0005081500   -0.0005670700
  -0.0001897300   -0.0005099600   -0.0005909300
  -0.0001978000   -0.0005088800   -0.0006026700
  -0.0001881700   -0.0004981500   -0.0005943700
  -0.0001913500   -0.0004780100   -0.0005954200
  -0.0001862900   -0.0005086300   -0.0005937600
  -0.0099211100   -0.0033238700    0.0055790300
  -0.0001812500   -0.0005288200   -0.0006043800
  -0.0002021300   -0.0005125500   -0.0005899700
  -0.0001862400   -0.0005016200   -0.0005901700
  -0.0002890000   -0.0005438700   -0.0005768800
  -0.0001911600   -0.0005245900   -0.0005989100
  -0.0000391400    0.0000621700    0.0000218800
   0.0000108600   -0.0001518300   -0.0000129700
   0.0000099100   -0.0001367000   -0.0000284000
   0.0000151300   -0.0001366400   -0.0000187100
  -0.0000240900   -0.0001590300   -0.0000132900
   0.0000197600   -0.0001439600   -0.0000153400
   0.0005595400   -0.0057888100   -0.0065192500
   0.0000348500   -0.0001380600   -0.0000018500
   0.0000045700   -0.0001511600   -0.0000276800
   0.0000237400   -0.0001414300   -0.0000142100
   0.0000199200   -0.0001080700   -0.0000320800
   0.0000233100   -0.0001357900   -0.0000146600
   0.0004841800    0.0001991700    0.0000203900
   0.0003952100    0.0003862800   -0.0001688600
   0.0003855200    0.0003828900   -0.0001756200
   0.0003917100    0.0003887500   -0.0001772200
   0.0004801500    0.0002683700   -0.0001756900
   0.0003952700    0.0003894900   -0.0001688900
   0.0004113800    0.0003680600   -0.0001843600
   0.0004018000    0.0002325700   -0.0001932900
   0.0003906300    0.0003928300   -0.0001828900
   0.0003960000    0.0003958400   -0.0001850600
   0.0004116000    0.0003305000   -0.0001958700
   0.0004012900    0.0003205600   -0.0001295600
   0.0007046800   -0.0005476300   -0.0000574000
   0.0007818900   -0.0004907200    0.0000067500
   0.0007690600   -0.0004922900    0.0000030700
   0.0007807600   -0.0004978000    0.0000097200
   0.0005128900   -0.0002880000    0.0001536900
   0.0007823800   -0.0004922700    0.0000077900
   0.0007783000   -0.0005083300    0.0000307100
   0.0007657700   -0.0005232500    0.0001494000
   0.0007777700   -0.0005006500    0.0000072200
   0.0007852400   -0.0005081000    0.0000171900
   0.0007548200   -0.0004693200    0.0000387400
   0.0008062000   -0.0004750200    0.0000816700
   0.0002009800   -0.0001709400    0.0000855400
   0.0002222800   -0.0002194700    0.0000631800
   0.0002200500   -0.0002214000    0.0000645000
   0.0002208200   -0.0002215700    0.0000677700
   0.0002995700   -0.0004347500    0.0000337700
   0.0002162500   -0.0002233500    0.0000722800
   0.0002225600   -0.0002352300    0.0000324100
   0.0000621200   -0.0000391400   -0.0000237300
   0.0002190500   -0.0002188600    0.0000645900
   0.0002250700   -0.0002184400    0.0000606600
   0.0002476200   -0.0003030900    0.0000239500
   0.0001368000   -0.0002235000   -0.0000077400
   0.0001780900   -0.0005130500    0.0006409200
   0.0002270100   -0.0005595000    0.0005700300
   0.0001877800   -0.0005046600    0.0005939400
   0.0001993200   -0.0005097600    0.0006011900
   0.0002668800   -0.0004019900    0.0003745500
   0.0001827500   -0.0005624100    0.0005043400
   0.0002313900   -0.0005342000    0.0006106600
   0.0001908300   -0.0004863500    0.0005863900
   0.0001839800   -0.0004998400    0.0005928700
   0.0001931200   -0.0005020000    0.0005964300
   0.0001822200   -0.0005140000    0.0005878300
   0.0001861600   -0.0004947700    0.0006012500
   0.0000089200   -0.0001141200   -0.0000046800
  -0.0000313200   -0.0002063200    0.0000021100
  -0.0000223200   -0.0001373900    0.0000197300
  -0.0000112200   -0.0001383500    0.0000202800
  -0.0001221700    0.0001436900    0.0002454400
  -0.0000269900   -0.0000753000    0.0000331100
  -0.0000555500   -0.0001062500    0.0000671600
   0.0000020500   -0.0001525900    0.0000080200
  -0.0000186200   -0.0001394000    0.0000182800
  -0.0000135600   -0.0001391500    0.0000223400
  -0.0000293700   -0.0001340300    0.0000322100
  -0.0000026800   -0.0001519100    0.0000235200
   0.0003917600   -0.0003871600   -0.0001713400
   0.0003704600   -0.0003865300   -0.0001664500
   0.0003937200   -0.0003906500   -0.0001742500
   0.0003882800   -0.0003827800   -0.0001899200
   0.0003917100   -0.0003935400   -0.0001645000
   0.0006523800   -0.0000451900    0.0000292700
   0.0004144000   -0.0003942100   -0.0001896600
   0.0003925500   -0.0003836000   -0.0001760500
   0.0003990900   -0.0003954700   -0.0001847800
   0.0004105300   -0.0003769400   -0.0001647800
   0.0004056300   -0.0004081600   -0.0001954200
   0.0036453800    0.0063297900   -0.0009562200
   0.0007858600    0.0004771500   -0.0000003000
   0.0007808400    0.0005200500    0.0000014300
   0.0007820400    0.0005008300    0.0000127100
   0.0007780200    0.0005011400    0.0000090700
   0.0007911900    0.0004933400    0.0000181600
   0.0008278600    0.0002886700   -0.0000898300
   0.0007858600    0.0004837700    0.0000182600
   0.0007737700    0.0004669300    0.0000411400
   0.0007837300    0.0005065200    0.0000191100
   0.0007676800    0.0004971000    0.0000279600
   0.0007909400    0.0005097600    0.0000166800
  -0.0016413900   -0.0001322500    0.0061675100
   0.0002185000    0.0002368500    0.0000841200
   0.0002160300    0.0002114900    0.0000715700
   0.0002202100    0.0002214100    0.0000667800
   0.0002217000    0.0002198000    0.0000673000
   0.0002274400    0.0002297200    0.0000599900
   0.0002324000    0.0002651100    0.0000121800
   0.0002244500    0.0002238700    0.0000623500
   0.0002447800    0.0001763300   -0.0000208800
   0.0002194600    0.0002170500    0.0000603900
   0.0002295100    0.0002040700    0.0000355200
   0.0002183800    0.0002213400    0.0000625300
   0.0148700300    0.0116722200   -0.0048168600
   0.0001945900    0.0004953600    0.0006010500
   0.0002616100    0.0005534900    0.0007711300
   0.0001953700    0.0005072200    0.0006013800
   0.0001929600    0.0005032000    0.0006034700
   0.0001992600    0.0005018000    0.0005973900
  -0.0188733200   -0.0078917700    0.0188724800
   0.0001877800    0.0004693400    0.0005877600
   0.0001915500    0.0005127000    0.0005941800
   0.0001949000    0.0005044400    0.0005985400
   0.0001900500    0.0005004700    0.0005937500
   0.0002041700    0.0005035100    0.0006020500
   0.0001578300    0.0004752000    0.0005782700
  -0.0000143200    0.0001321400    0.0000256000
  -0.0000102600    0.0000748500   -0.0000202800
  -0.0000121900    0.0001374800    0.0000182300
  -0.0000406200    0.0001344700    0.0000133100
  -0.0000104100    0.0001367500    0.0000264300
   0.0852584800    0.0472586800   -0.0131045700
   0.0000049800    0.0001508200    0.0000369500
  -0.0000208300    0.0001419700    0.0000185900
  -0.0000100100    0.0001382200    0.0000224300
  -0.0000124800    0.0001421000    0.0000160700
  -0.0000008100    0.0001322700    0.0000284900
   0.0000083800    0.0001419800   -0.0000170900
  -0.0003843400   -0.0004215000    0.0002004900
  -0.0003814000   -0.0004430400    0.0003118600
  -0.0003952600   -0.0003925000    0.0001818700
  -0.0003952200   -0.0003963000    0.0001881500
  -0.0003913000   -0.0005029900    0.0001360600
  -0.0003893300   -0.0003513000    0.0003099000
  -0.0003963000   -0.0003750600    0.0002033100
  -0.0003961200   -0.0003615100    0.0001669400
  -0.0003864900   -0.0003883800    0.0001755200
  -0.0003864900   -0.0003892900    0.0001741400
  -0.0003957800   -0.0003892900    0.0001932700
  -0.0003957600   -0.0003897000    0.0001683800
  -0.0008002800    0.0005185600    0.0000030100
  -0.0001978500    0.0007177100    0.0000480200
  -0.0007783100    0.0004965700   -0.0000115600
  -0.0007902900    0.0005127100   -0.0000248100
  -0.0008388300    0.0005038000    0.0000555100
  -0.0006668000    0.0004781800    0.0000772500
  -0.0007938500    0.0005497300   -0.0000170300
  -0.0007737700    0.0004701400   -0.0000140800
  -0.0007719100    0.0004943900   -0.0000000200
  -0.0007793500    0.0005004000   -0.0000065300
  -0.0007617900    0.0004793600   -0.0000138900
  -0.0007786000    0.0004974500   -0.0000088200
  -0.0002000400    0.0002189000   -0.0000730100
  -0.0000407900    0.0001197400   -0.0000911400
  -0.0002199500    0.0002186300   -0.0000623300
  -0.0002236700    0.0002103900   -0.0000543500
  -0.0001933700    0.0002171500   -0.0001215600
  -0.0001359300    0.0002449700   -0.0002254900
  -0.0002419600    0.0001507100   -0.0001383100
  -0.0002452500    0.0002380400   -0.0000585600
  -0.0002170100    0.0002248700   -0.0000719200
  -0.0002195900    0.0002193500   -0.0000678000
  -0.0002452700    0.0002292200    0.0000077600
  -0.0002211700    0.0002197800   -0.0000650600
   0.0000195200    0.0007153600   -0.0007830100
  -0.0001866800    0.0005022300   -0.0005984200
  -0.0001810900    0.0004941400   -0.0005855000
  -0.0001907800    0.0005011800   -0.0005950900
  -0.0001778800    0.0004541700   -0.0006005500
  -0.0001907900    0.0005034300   -0.0005952900
  -0.0002243500    0.0005047100   -0.0005867100
  -0.0001588700    0.0008882300   -0.0004392400
  -0.0001909900    0.0005050000   -0.0005970300
  -0.0002061200    0.0005157200   -0.0006087700
  -0.0002090300    0.0005189700   -0.0005512700
  -0.0002264500    0.0005016200   -0.0005776200
   0.0005797800    0.0003217200    0.0004128400
   0.0000141900    0.0001498500   -0.0000143800
   0.0000144400    0.0001445700   -0.0000209200
   0.0000121300    0.0001425000   -0.0000186600
  -0.0000031500    0.0001223500    0.0000420900
   0.0000196200    0.0001408600   -0.0000214800
   0.0000237800    0.0001750900   -0.0000438600
   0.0000672200    0.0001943500   -0.0001664300
   0.0000190700    0.0001358000   -0.0000203000
   0.0000147000    0.0001333300   -0.0000182300
   0.0000050900    0.0001688100   -0.0000637900
  -0.0000338700    0.0002097600   -0.0000348400
   0.0623052700   -0.0154598900   -0.0781501900
  -0.0004555300    0.0000867100   -0.0001645500
  -0.0004407300    0.0000657200   -0.0001689400
  -0.0004525600    0.0000867500   -0.0001640600
  -0.0004293900    0.0000799300   -0.0001422900
  -0.0004531500    0.0000870300   -0.0001651800
  -0.0004870800    0.0000731100   -0.0001638400
  -0.0004708000    0.0000864300   -0.0001657700
  -0.0004462700    0.0000866000   -0.0001621800
  -0.0004578500    0.0001014600   -0.0001610900
  -0.0004471100    0.0000895200   -0.0001636100
  -0.0004573500    0.0000873100   -0.0001652100
   0.0002531200    0.0039625400   -0.0051840200
  -0.0000702600    0.0002730100   -0.0004527100
  -0.0000620200    0.0002627800   -0.0004542900
  -0.0000577800    0.0002668200   -0.0004569800
  -0.0001150100    0.0002634400   -0.0004571000
  -0.0000636900    0.0002686500   -0.0004546300
  -0.0000458800    0.0002606200   -0.0004634400
  -0.0000561700    0.0002704100   -0.0004743800
  -0.0000524500    0.0002646400   -0.0004592900
  -0.0000557100    0.0002687000   -0.0004616600
  -0.0000499400    0.0002624800   -0.0004562000
  -0.0000581800    0.0002685100   -0.0004668200
  -0.0007947500    0.0003056100    0.0001351900
  -0.0008307200    0.0003093500    0.0001344800
  -0.0008217100    0.0003101800    0.0001366400
  -0.0008272700    0.0003114000    0.0001350600
  -0.0008104400    0.0003109000    0.0001435300
  -0.0008319100    0.0003114000    0.0001333500
  -0.0008293800    0.0003222000    0.0003729200
  -0.0008524500    0.0003130400    0.0001310300
  -0.0008274300    0.0003103500    0.0001404600
  -0.0008295800    0.0003116500    0.0001370600
  -0.0007458500    0.0003300100    0.0001443600
  -0.0008357000    0.0003115300    0.0001318300
  -0.0003784900   -0.0006934200   -0.0002803100
  -0.0005003400   -0.0007296400   -0.0003018900
  -0.0004951300   -0.0007330900   -0.0002962400
  -0.0004984800   -0.0007304100   -0.0002999300
  -0.0004712800   -0.0007486200   -0.0002633100
  -0.0005045500   -0.0007331700   -0.0003016600
   0.0000016000   -0.0010770100   -0.0002915300
  -0.0005210400   -0.0007404800   -0.0003225200
  -0.0005013400   -0.0007389200   -0.0002993700
  -0.0005025700   -0.0007343400   -0.0003042300
  -0.0005051300   -0.0007307200   -0.0003049800
  -0.0005084900   -0.0007382600   -0.0003083700
   0.0005177300    0.0001046600    0.0000888900
   0.0004372600    0.0000921900    0.0001602000
   0.0004533900    0.0000937200    0.0001624100
   0.0004488800    0.0000883700    0.0001622400
   0.0004122100    0.0001467300    0.0001992300
   0.0004407500    0.0000873000    0.0001594500
   0.0004585500    0.0000836700    0.0001621900
   0.0004357700    0.0000637000    0.0001698700
   0.0004518100    0.0000863100    0.0001631700
   0.0004479800    0.0000841700    0.0001647300
   0.0004654400    0.0000881400    0.0001638700
   0.0004475100    0.0000873500    0.0001652800
   0.0000392000    0.0002846000    0.0004733600
   0.0000538900    0.0002647100    0.0004580000
   0.0000626500    0.0002693200    0.0004641500
   0.0000530400    0.0002647600    0.0004589000
   0.0002748300    0.0004213400    0.0002123700
   0.0000491300    0.0002637700    0.0004605200
   0.0000572300    0.0002664700    0.0004555600
   0.0000678100    0.0002682800    0.0004727400
   0.0000576600    0.0002668500    0.0004591600
   0.0000525100    0.0002616400    0.0004524600
   0.0000204700    0.0002714600    0.0004711400
   0.0000297400    0.0002526300    0.0004367700
   0.0008342400    0.0003108300   -0.0001369800
   0.0008236800    0.0003153000   -0.0001385500
   0.0008309600    0.0003115300   -0.0001337300
   0.0008185000    0.0003072700   -0.0001450100
   0.0008401500    0.0002227300   -0.0001499400
   0.0008019500    0.0003115800   -0.0001513400
   0.0008282100    0.0003123900   -0.0001324700
   0.0008232900    0.0003104300   -0.0001396300
   0.0008360900    0.0003118700   -0.0001320200
   0.0008225000    0.0003112700   -0.0001371500
   0.0008674100    0.0003069700   -0.0001394100
   0.0008202300    0.0003115900   -0.0001364300
   0.0004993900   -0.0007478200    0.0003099000
   0.0005024200   -0.0007687600    0.0002974800
   0.0005017800   -0.0007329300    0.0003018100
   0.0004961700   -0.0007392500    0.0003022700
   0.0007293800   -0.0009916000    0.0003247800
   0.0004815200   -0.0007455200    0.0003044300
   0.0004909800   -0.0007337200    0.0003042300
   0.0004927800   -0.0007236800    0.0002923100
   0.0004996300   -0.0007310100    0.0002996100
   0.0004969800   -0.0007329700    0.0002973900
   0.0004978000   -0.0007322100    0.0003076700
   0.0004969800   -0.0007251700    0.0002914600
   0.0004496200   -0.0000890700    0.0001624600
   0.0004628400   -0.0000800400    0.0001687200
   0.0004484100   -0.0000843000    0.0001618300
   0.0004563700   -0.0000959200    0.0001630400
   0.0004419200   -0.0000900300    0.0001602100
   0.0006824300   -0.0002323400   -0.0002811700
   0.0004351900   -0.0000910900    0.0001570900
   0.0004520400   -0.0000912200    0.0001687300
   0.0004471800   -0.0000807700    0.0001627800
   0.0004549500   -0.0000838100    0.0001655800
   0.0004417100   -0.0000780200    0.0001627100
   0.0004179800    0.0000657400    0.0001291200
   0.0000410500   -0.0002609900    0.0004665100
   0.0000530200   -0.0002679000    0.0004758900
   0.0000539900   -0.0002656800    0.0004598200
   0.0000566800   -0.0002653900    0.0004595700
   0.0000387400   -0.0002505000    0.0004540500
   0.0000565000   -0.0002787200    0.0004815200
   0.0000505300   -0.0002605900    0.0004429800
   0.0000646300   -0.0002590300    0.0004368600
   0.0000538700   -0.0002639800    0.0004548900
   0.0000511000   -0.0002645000    0.0004501800
   0.0000517400   -0.0002605600    0.0004504700
   0.0000913700   -0.0004302900    0.0006226400
   0.0008193100   -0.0003112800   -0.0001409300
   0.0008134500   -0.0002305700   -0.0003343300
   0.0008241100   -0.0003104300   -0.0001387000
   0.0008282600   -0.0003078300   -0.0001394200
   0.0008187100   -0.0003103500   -0.0001401800
  -0.0038308500    0.0012165100   -0.0044903300
   0.0007958000   -0.0003229900   -0.0001523400
   0.0008251700   -0.0003102000   -0.0001337100
   0.0008247300   -0.0003111200   -0.0001365000
   0.0008267300   -0.0003111100   -0.0001363200
   0.0008121300   -0.0003077000   -0.0001420200
   0.0008250000   -0.0003112400   -0.0001381100
   0.0004963700    0.0007364500    0.0002996100
   0.0004988500    0.0007872700    0.0003609800
   0.0004982500    0.0007371600    0.0003011500
   0.0004990200    0.0007290200    0.0003023300
   0.0004949500    0.0007393000    0.0002978700
   0.0018345300    0.0145001000    0.0071921700
   0.0004780400    0.0007287800    0.0002791700
   0.0005012200    0.0007292900    0.0003000100
   0.0004952200    0.0007331300    0.0002975800
   0.0004989300    0.0007331500    0.0002993500
   0.0004883500    0.0007323100    0.0002922800
   0.0005025800    0.0007426500    0.0003018400
  -0.0004660800   -0.0000839900   -0.0001498700
  -0.0004313700   -0.0000746100   -0.0001702200
  -0.0004485700   -0.0000865200   -0.0001609800
  -0.0004490200   -0.0000857500   -0.0001632700
  -0.0004568900   -0.0000756700   -0.0001643400
  -0.0004611500   -0.0000962100   -0.0001659800
  -0.0004618200   -0.0000853900   -0.0001523600
  -0.0004153400   -0.0001255200   -0.0001806900
  -0.0004525300   -0.0000880900   -0.0001627200
  -0.0004524500   -0.0000856700   -0.0001634900
  -0.0004568000   -0.0000888800   -0.0001583300
  -0.0004452200   -0.0000878300   -0.0001629800
  -0.0000560100   -0.0002717400   -0.0004545100
  -0.0000712100   -0.0006578300   -0.0003209900
  -0.0000564400   -0.0002663300   -0.0004556800
  -0.0000493800   -0.0002612600   -0.0004447300
  -0.0000415600   -0.0002632900   -0.0004532600
  -0.0000690000   -0.0002808200   -0.0004564700
  -0.0000551000   -0.0002734200   -0.0004669400
  -0.0000625000   -0.0002413100   -0.0004208800
  -0.0000618900   -0.0002709800   -0.0004676700
  -0.0000540500   -0.0002668100   -0.0004632400
  -0.0000554000   -0.0002711600   -0.0004485900
  -0.0000547100   -0.0002651500   -0.0004595900
  -0.0008354200   -0.0002839100    0.0001153000
  -0.0008285000   -0.0003100500    0.0001385200
  -0.0008374900   -0.0003160800    0.0001275200
  -0.0008251400   -0.0003111700    0.0001371100
  -0.0008311800   -0.0003111700    0.0001461600
  -0.0008251100   -0.0003109000    0.0001359900
  -0.0008360800   -0.0003101000    0.0001351200
  -0.0007883300   -0.0005574000    0.0004843500
  -0.0008287100   -0.0003113700    0.0001359700
  -0.0008180200   -0.0003053500    0.0001428000
  -0.0008279400   -0.0003122100    0.0001369700
  -0.0008213300   -0.0003139200    0.0001405600
  -0.0008337000    0.0009132200   -0.0000832200
  -0.0005029000    0.0007249400   -0.0002989900
  -0.0004974500    0.0007276100   -0.0002938600
  -0.0004973200    0.0007334700   -0.0002973900
  -0.0004856700    0.0007169700   -0.0002976100
  -0.0004996000    0.0007275500   -0.0002985200
  -0.0005033500    0.0007398300   -0.0003057600
  -0.0004580500    0.0007830100   -0.0002241100
  -0.0005008400    0.0007342900   -0.0003033200
  -0.0004989400    0.0007397300   -0.0003073400
  -0.0004942400    0.0007347300   -0.0003032400
  -0.0005026900    0.0007385300   -0.0002984900

1    
 -0.0099994036661494   0.0000000000000000   0.0001092076984377
   0.2887200200    0.1624948100   -0.1910118500
  -0.0003911000    0.0003942100    0.0001692900
  -0.0003931300    0.0003388600    0.0001504400
  -0.0003942900    0.0003884000    0.0001746800
  -0.0003922200    0.0004055500    0.0002205000
  -0.0003945000    0.0003882000    0.0001738400
  -0.0004105200    0.0003524600    0.0001680700
  -0.0004211600    0.0003944800    0.0001961600
  -0.0003899100    0.0003944700    0.0001926100
  -0.0004020000    0.0004049500    0.0001862800
  -0.0003898100    0.0003929500    0.0001849200
  -0.0004021900    0.0003949700    0.0001847400
  -0.1480442800   -0.1111056800    0.0823643400
  -0.0007904500   -0.0004883900   -0.0000039500
  -0.0007500900   -0.0004522200   -0.0000160700
  -0.0007838900   -0.0005018000   -0.0000170000
  -0.0008774100   -0.0005160600   -0.0000441500
  -0.0007836700   -0.0004857200   -0.0000088700
  -0.0007680400   -0.0004911100   -0.0000097800
  -0.0007855000   -0.0004860000   -0.0000215300
  -0.0007777100   -0.0005014700   -0.0000066700
  -0.0007881000   -0.0005140200   -0.0000177400
  -0.0007791400   -0.0005115400   -0.0000104700
  -0.0007842800   -0.0004942100   -0.0000164200
  -0.0095502300   -0.0002470400    0.0349195300
  -0.0002206400   -0.0002276400   -0.0000822900
  -0.0002130000   -0.0001915900   -0.0000564900
  -0.0002216800   -0.0002226100   -0.0000673700
  -0.0001926000   -0.0001718500   -0.0000970200
  -0.0002205600   -0.0002258400   -0.0000722500
  -0.0002601300   -0.0002429700   -0.0000276900
  -0.0002195000   -0.0002201700   -0.0000550700
  -0.0002201400   -0.0002164500   -0.0000607400
  -0.0002198100   -0.0002195700   -0.0000606200
  -0.0002194800   -0.0002075100   -0.0000587600
  -0.0002224200   -0.0002195600   -0.0000613700
  -0.0001870300   -0.0005032800   -0.0006291500
  -0.0001942200   -0.0004991600   -0.0006023500
  -0.0001865500   -0.0004998100   -0.0005909700
  -0.0001959900   -0.0005108600   -0.0005991000
  -0.0001928500   -0.0005305800   -0.0005975800
  -0.0001981600   -0.0005005400   -0.0005994300
   0.0095635200    0.0022883300   -0.0067291900
  -0.0002026600   -0.0004800000   -0.0005892000
  -0.0001824300   -0.0004968500   -0.0006030900
  -0.0001981800   -0.0005073500   -0.0006029700
  -0.0000965500   -0.0004660000   -0.0006176300
  -0.0001933100   -0.0004843200   -0.0005943300
   0.0000649600   -0.0003379900   -0.0000613000
   0.0000199600   -0.0001260500   -0.0000261300
   0.0000201600   -0.0001416100   -0.0000105700
   0.0000156900   -0.0001411100   -0.0000206900
   0.0000555500   -0.0001183300   -0.0000265400
   0.0000108200   -0.0001339400   -0.0000238800
  -0.0004951400    0.0055084000    0.0064430600
  -0.0000040300   -0.0001402500   -0.0000368900
   0.0000261900   -0.0001269800   -0.0000119700
   0.0000067600   -0.0001369600   -0.0000246100
   0.0000105100   -0.0001694700   -0.0000071400
   0.0000073200   -0.0001418600   -0.0000245700
   0.0002997900    0.0005803600   -0.0003743400
   0.0003866000    0.0003952500   -0.0001910200
   0.0003968600    0.0003989500   -0.0001852400
   0.0003906900    0.0003932300   -0.0001838400
   0.0002999800    0.0005129200   -0.0001806900
   0.0003866100    0.0003926100   -0.0001915400
   0.0003707500    0.0004144100   -0.0001763000
   0.0003831500    0.0005486100   -0.0001697300
   0.0003918200    0.0003895200   -0.0001782400
   0.0003864900    0.0003862300   -0.0001757500
   0.0003712400    0.0004505400   -0.0001665200
   0.0003812600    0.0004611700   -0.0002320700
   0.0008551500   -0.0004547600    0.0000753000
   0.0007775900   -0.0005103200    0.0000139000
   0.0007901100   -0.0005081000    0.0000175500
   0.0007787500   -0.0005031500    0.0000112500
   0.0010408400   -0.0007026000   -0.0001269400
   0.0007769700   -0.0005089600    0.0000133400
   0.0007812000   -0.0004927400   -0.0000105400
   0.0007932000   -0.0004781000   -0.0001274600
   0.0007819700   -0.0005007200    0.0000138300
   0.0007743000   -0.0004933100    0.0000038300
   0.0008024400   -0.0005334900   -0.0000158100
   0.0007546400   -0.0005255400   -0.0000608300
   0.0002400500   -0.0002657800    0.0000446400
   0.0002187100   -0.0002187200    0.0000667900
   0.0002210900   -0.0002164900    0.0000650800
   0.0002206200   -0.0002162600    0.0000616100
   0.0001462800   -0.0000121600    0.0000938200
   0.0002251000   -0.0002151000    0.0000568800
   0.0002180200   -0.0002026300    0.0000966000
   0.0003811200   -0.0003995600    0.0001529100
   0.0002222400   -0.0002188600    0.0000646100
   0.0002161100   -0.0002195200    0.0000688300
   0.0001940600   -0.0001347000    0.0001024400
   0.0003050400   -0.0002130000    0.0001392900
   0.0002056100   -0.0004955700    0.0005526400
   0.0001564500   -0.0004480100    0.0006231400
   0.0001970500   -0.0005045100    0.0005991600
   0.0001852900   -0.0004993800    0.0005914500
   0.0001152800   -0.0006089500    0.0008194200
   0.0002015000   -0.0004470200    0.0006882000
   0.0001545100   -0.0004757500    0.0005822100
   0.0001938900   -0.0005236000    0.0006070800
   0.0002001700   -0.0005083700    0.0005996800
   0.0001917200   -0.0005068100    0.0005963900
   0.0002019100   -0.0004941700    0.0006047300
   0.0001984800   -0.0005130500    0.0005911700
  -0.0000412700   -0.0001620400    0.0000434300
   0.0000014100   -0.0000714800    0.0000369400
  -0.0000086000   -0.0001403100    0.0000197100
  -0.0000195900   -0.0001398400    0.0000190600
   0.0000940300   -0.0004238400   -0.0002085300
  -0.0000040700   -0.0002028400    0.0000062300
   0.0000241400   -0.0001714200   -0.0000264500
  -0.0000330400   -0.0001249200    0.0000319400
  -0.0000123400   -0.0001385500    0.0000212400
  -0.0000172800   -0.0001386000    0.0000174100
  -0.0000016200   -0.0001439900    0.0000076400
  -0.0000262200   -0.0001261700    0.0000165200
   0.0003906500   -0.0003949800   -0.0001890300
   0.0004113400   -0.0003952600   -0.0001940100
   0.0003886500   -0.0003913300   -0.0001865700
   0.0003939100   -0.0003989200   -0.0001702200
   0.0003903400   -0.0003883100   -0.0001955900
   0.0001119400   -0.0007435600   -0.0003818700
   0.0003686200   -0.0003878500   -0.0001708200
   0.0003907700   -0.0003989200   -0.0001858400
   0.0003833900   -0.0003870500   -0.0001763200
   0.0003722500   -0.0004058000   -0.0001969500
   0.0003771900   -0.0003743200   -0.0001656500
  -0.0028513900   -0.0070792400    0.0006092100
   0.0007745900    0.0005236200    0.0000210800
   0.0007779900    0.0004809700    0.0000189800
   0.0007777900    0.0005004000    0.0000085000
   0.0007813200    0.0004996600    0.0000117000
   0.0007689300    0.0005077700    0.0000029200
   0.0007317200    0.0007173300    0.0001111600
   0.0007738300    0.0005175500    0.0000032300
   0.0007870400    0.0005348100   -0.0000183600
   0.0007757900    0.0004945000    0.0000019000
   0.0007926800    0.0005045200   -0.0000067900
   0.0007690400    0.0004917600    0.0000042100
   0.0031768000    0.0011222200   -0.0061021500
   0.0002229500    0.0002013800    0.0000462000
   0.0002252700    0.0002266000    0.0000579700
   0.0002212500    0.0002169700    0.0000628000
   0.0002196100    0.0002181300    0.0000623900
   0.0002139700    0.0002085700    0.0000700800
   0.0002083400    0.0001710300    0.0001202700
   0.0002171300    0.0002142700    0.0000670000
   0.0001968900    0.0002598000    0.0001494300
   0.0002218800    0.0002206700    0.0000687800
   0.0002119000    0.0002338100    0.0000941100
   0.0002230900    0.0002165200    0.0000669400
  -0.0144088300   -0.0112491500    0.0049187100
   0.0001899400    0.0005144200    0.0005923200
   0.0001248400    0.0004567000    0.0004239300
   0.0001890100    0.0005015800    0.0005918200
   0.0001920600    0.0005056800    0.0005894700
   0.0001853300    0.0005077400    0.0005960200
   0.0191499300    0.0088772200   -0.0176508000
   0.0001972800    0.0005389000    0.0006053900
   0.0001923500    0.0004961200    0.0005986400
   0.0001899200    0.0005048000    0.0005947600
   0.0001946700    0.0005088700    0.0005993100
   0.0001807200    0.0005050800    0.0005911100
   0.0002274600    0.0005347400    0.0006148400
  -0.0000163900    0.0001458300    0.0000137500
  -0.0000224300    0.0002022800    0.0000611700
  -0.0000189900    0.0001401400    0.0000212400
   0.0000101900    0.0001441400    0.0000258900
  -0.0000204800    0.0001412800    0.0000126100
  -0.0844974800   -0.0472343900    0.0131246200
  -0.0000350000    0.0001273200    0.0000030100
  -0.0000099300    0.0001364600    0.0000202000
  -0.0000202900    0.0001401400    0.0000167100
  -0.0000186000    0.0001356400    0.0000236000
  -0.0000295800    0.0001455100    0.0000110100
  -0.0000402400    0.0001371200    0.0000583100
  -0.0004015400   -0.0003619200    0.0001611200
  -0.0004011000   -0.0003363900    0.0000472500
  -0.0003872700   -0.0003898200    0.0001792700
  -0.0003873500   -0.0003858700    0.0001725200
  -0.0003919000   -0.0002808100    0.0002268800
  -0.0003938000   -0.0004315800    0.0000504700
  -0.0003860900   -0.0004065200    0.0001578300
  -0.0003852000   -0.0004205900    0.0001923000
  -0.0003957700   -0.0003935500    0.0001851700