432  
54   

1    
  0.0099999016536667   0.0000000000000000   0.0000443499379341
  -0.2709680000   -0.1736720000    0.1796320000
  -0.0000691807    0.0000134737   -0.0000492104
  -0.0000643811    0.0000369674   -0.0000346004
  -0.0000643350    0.0000151151   -0.0000509984
  -0.0000644031    0.0000113957   -0.0000633015
  -0.0000643446    0.0000151344   -0.0000518767
  -0.0000651126    0.0000188379   -0.0000479771
  -0.0000616167    0.0000086177   -0.0000624024
  -0.0000645970    0.0000143295   -0.0000613704
  -0.0000615775    0.0000116965   -0.0000567899
  -0.0000645967    0.0000177368   -0.0000522574
  -0.0000615270    0.0000140096   -0.0000555451
   0.1332410000    0.1138660000   -0.0787555000
  -0.0000142704   -0.0000193092    0.0000678391
  -0.0000174309   -0.0000372328    0.0000561600
  -0.0000103328   -0.0000136470    0.0000730598
   0.0000113631    0.0000311568    0.0000837191
  -0.0000126129   -0.0000169391    0.0000692221
  -0.0000219383   -0.0000203673    0.0000696830
  -0.0000128876   -0.0000184402    0.0000680184
  -0.0000137868   -0.0000112633    0.0000695930
  -0.0000093429   -0.0000115234    0.0000691066
  -0.0000125373   -0.0000105637    0.0000704078
  -0.0000116186   -0.0000195034    0.0000680340
   0.0134750000   -0.0075532500   -0.0471713000
   0.0000707654   -0.0000289809   -0.0000505773
   0.0000626251   -0.0000355052   -0.0000340869
   0.0000717738   -0.0000297820   -0.0000528879
   0.0000654186   -0.0000426516   -0.0000513562
   0.0000720597   -0.0000304386   -0.0000524875
   0.0000776593   -0.0000217093   -0.0000605384
   0.0000719416   -0.0000330165   -0.0000584782
   0.0000747493   -0.0000331294   -0.0000569322
   0.0000729886   -0.0000320568   -0.0000554472
   0.0000735547   -0.0000339570   -0.0000558083
   0.0000722779   -0.0000301198   -0.0000542109
  -0.0000206516   -0.0000403657    0.0001270560
  -0.0000292299   -0.0000348667    0.0001548830
  -0.0000308356   -0.0000384854    0.0001527420
  -0.0000260926   -0.0000365924    0.0001533140
  -0.0000260842   -0.0000267151    0.0001556960
  -0.0000261006   -0.0000413966    0.0001522570
  -0.0116255000   -0.0025195200    0.0100264000
  -0.0000279086   -0.0000450200    0.0001481950
  -0.0000194577   -0.0000332520    0.0001420580
  -0.0000216721   -0.0000363849    0.0001553070
  -0.0000285427   -0.0000237734    0.0001643830
  -0.0000260344   -0.0000398412    0.0001517340
   0.0000439639   -0.0000389438   -0.0002751330
  -0.0000312393   -0.0000121454   -0.0001696950
  -0.0000278203   -0.0000074317   -0.0001675210
  -0.0000273799   -0.0000105817   -0.0001649310
  -0.0000425951   -0.0000218929   -0.0001529680
  -0.0000265714   -0.0000118034   -0.0001639010
   0.0001709450   -0.0079261500   -0.0090568200
  -0.0000283634   -0.0000162418   -0.0001654500
  -0.0000331726   -0.0000135604   -0.0001580380
  -0.0000222780   -0.0000113185   -0.0001660600
  -0.0000252319   -0.0000056091   -0.0001630770
  -0.0000250719   -0.0000116854   -0.0001656520
   0.0000846904   -0.0000216565    0.0001744680
   0.0000656970    0.0000131415    0.0000605697
   0.0000626132    0.0000153868    0.0000525764
   0.0000647138    0.0000158619    0.0000538273
   0.0000850023   -0.0000050923    0.0000148841
   0.0000656723    0.0000151500    0.0000533739
   0.0000667523    0.0000142851    0.0000592125
   0.0000630561    0.0000142291    0.0000643993
   0.0000637617    0.0000162880    0.0000522570
   0.0000640439    0.0000191905    0.0000506396
   0.0000670930    0.0000163510    0.0000513229
   0.0000630506    0.0000020505    0.0000563988
   0.0000202296   -0.0000119715   -0.0001049470
   0.0000112874   -0.0000096955   -0.0000674220
   0.0000080731   -0.0000099150   -0.0000704555
   0.0000125082   -0.0000139516   -0.0000691801
  -0.0000684721    0.0000966454   -0.0000753258
   0.0000131340   -0.0000170279   -0.0000660856
   0.0000172378   -0.0000165847   -0.0000706138
   0.0000266605   -0.0000314411   -0.0000611035
   0.0000109501   -0.0000128455   -0.0000719836
   0.0000144578   -0.0000203548   -0.0000672948
   0.0000145217   -0.0000091520   -0.0000595540
   0.0000141810   -0.0000160179   -0.0000695322
  -0.0000810164   -0.0000269595    0.0000729109
  -0.0000720145   -0.0000339809    0.0000526614
  -0.0000719102   -0.0000328839    0.0000541547
  -0.0000732579   -0.0000316782    0.0000544367
  -0.0000420563   -0.0000765075    0.0000400197
  -0.0000735134   -0.0000302284    0.0000531111
  -0.0000730634   -0.0000371915    0.0000512618
  -0.0000980188    0.0000058963    0.0000341912
  -0.0000732755   -0.0000304246    0.0000549623
  -0.0000723344   -0.0000300607    0.0000511761
  -0.0000698176   -0.0000480980    0.0000486675
  -0.0001085470   -0.0000563940    0.0000380679
   0.0000299097   -0.0000487675   -0.0001593170
   0.0000352220   -0.0000504509   -0.0001424160
   0.0000236583   -0.0000356207   -0.0001549710
   0.0000272084   -0.0000399761   -0.0001507740
   0.0000677616   -0.0000023940   -0.0001730840
   0.0000334645   -0.0000451710   -0.0001787150
   0.0000412514   -0.0000415800   -0.0001629280
   0.0000259924   -0.0000295331   -0.0001555460
   0.0000236748   -0.0000345768   -0.0001547850
   0.0000268049   -0.0000380192   -0.0001524000
   0.0000286797   -0.0000416241   -0.0001559850
   0.0000251405   -0.0000402181   -0.0001480900
   0.0000086924    0.0000040536    0.0001663930
   0.0000328240   -0.0000176419    0.0001610180
   0.0000216327   -0.0000068008    0.0001676780
   0.0000270836   -0.0000103111    0.0001650490
   0.0000627886   -0.0000208250    0.0002164750
   0.0000155802    0.0000022391    0.0001861090
   0.0000218186   -0.0000080874    0.0001790740
   0.0000342320   -0.0000180919    0.0001610870
   0.0000262511   -0.0000099954    0.0001646570
   0.0000258593   -0.0000092247    0.0001660710
   0.0000232632   -0.0000054777    0.0001697940
   0.0000271010   -0.0000150893    0.0001641400
   0.0000646020   -0.0000161424    0.0000544571
   0.0000584036   -0.0000078625    0.0000695380
   0.0000677044   -0.0000154013    0.0000552628
   0.0000671115   -0.0000140104    0.0000477296
   0.0000546143   -0.0000192043    0.0000555984
   0.0001407090    0.0000726685    0.0001016370
   0.0000718554   -0.0000192458    0.0000477912
   0.0000619836   -0.0000107593    0.0000633124
   0.0000689870   -0.0000169630    0.0000517445
   0.0000686257   -0.0000115632    0.0000537881
   0.0000679796   -0.0000218286    0.0000461210
   0.0046470600    0.0091030500   -0.0012229500
   0.0000132066    0.0000145668   -0.0000690890
   0.0000111493    0.0000229988   -0.0000666847
   0.0000162893    0.0000157703   -0.0000664520
   0.0000127562    0.0000161381   -0.0000666817
   0.0000106023    0.0000098008   -0.0000702476
   0.0000139972   -0.0000137973   -0.0000993438
   0.0000146562    0.0000067650   -0.0000692737
   0.0000125878   -0.0000031946   -0.0000836154
   0.0000161194    0.0000153440   -0.0000675055
   0.0000130850    0.0000114695   -0.0000685916
   0.0000153121    0.0000155280   -0.0000686813
  -0.0039294300   -0.0012870000    0.0088156000
  -0.0000754783    0.0000311985    0.0000568001
  -0.0000745011    0.0000302911    0.0000585248
  -0.0000744177    0.0000322418    0.0000535609
  -0.0000729179    0.0000316484    0.0000535900
  -0.0000765254    0.0000331571    0.0000497142
  -0.0000759564    0.0000314221    0.0000547912
  -0.0000742057    0.0000320354    0.0000512932
  -0.0000594441    0.0000221428   -0.0000027808
  -0.0000741700    0.0000312933    0.0000527860
  -0.0000709548    0.0000316990    0.0000499095
  -0.0000739670    0.0000307206    0.0000510194
   0.0192942000    0.0170850000   -0.0087252900
   0.0000275818    0.0000340377   -0.0001502180
   0.0000885637    0.0001466380   -0.0001068010
   0.0000296371    0.0000367059   -0.0001507190
   0.0000294255    0.0000369479   -0.0001526620
   0.0000269073    0.0000365477   -0.0001514080
  -0.0225792000   -0.0068661200    0.0347170000
   0.0000296316    0.0000347231   -0.0001547920
   0.0000249633    0.0000372603   -0.0001551110
   0.0000315213    0.0000372923   -0.0001511270
   0.0000268478    0.0000354983   -0.0001519830
   0.0000324617    0.0000340871   -0.0001529270
   0.0000239560    0.0000391318   -0.0001520280
   0.0000272104    0.0000083195    0.0001685680
   0.0000290018    0.0000103246    0.0001691070
   0.0000300608    0.0000110209    0.0001667470
   0.0000248973    0.0000097164    0.0001705170
   0.0000254964    0.0000080007    0.0001662600
   0.0828553000    0.0507441000   -0.0236197000
   0.0000304247    0.0000075201    0.0001664300
   0.0000260572    0.0000112468    0.0001648010
   0.0000319568    0.0000111210    0.0001660130
   0.0000306023    0.0000138862    0.0001643060
   0.0000307945    0.0000054055    0.0001636250
   0.0000239145    0.0000064504    0.0001686250
  -0.0000932461   -0.0000377964   -0.0000386329
  -0.0000916337   -0.0000111688   -0.0000243320
  -0.0000694192   -0.0000149781   -0.0000527718
  -0.0000693291   -0.0000139209   -0.0000511873
  -0.0000688129   -0.0000219528   -0.0000680456
  -0.0000694483   -0.0000188588   -0.0000159376
  -0.0000637768   -0.0000135980   -0.0000468222
  -0.0000635277   -0.0000144039   -0.0000621420
  -0.0000651168   -0.0000144005   -0.0000558549
  -0.0000651102   -0.0000130630   -0.0000587699
  -0.0000693808   -0.0000141750   -0.0000449163
  -0.0000690248   -0.0000150143   -0.0000579028
  -0.0000159547   -0.0000063672    0.0000570026
   0.0002008350   -0.0000239620    0.0001441650
  -0.0000145869    0.0000100877    0.0000689074
  -0.0000185734    0.0000220689    0.0000649961
  -0.0000186968    0.0000175600    0.0000793800
   0.0000107731    0.0000026988    0.0000539834
  -0.0000105924    0.0000291101    0.0000617145
  -0.0000099971    0.0000023940    0.0000731005
  -0.0000113975    0.0000113936    0.0000704647
  -0.0000137475    0.0000151700    0.0000687243
  -0.0000077658    0.0000111738    0.0000600108
  -0.0000177276    0.0000169900    0.0000701397
   0.0000750898    0.0000342510   -0.0000652547
   0.0000713904   -0.0000049733   -0.0000459095
   0.0000748559    0.0000312793   -0.0000542300
   0.0000729591    0.0000293452   -0.0000488993
   0.0000714674    0.0000332418   -0.0000593344
   0.0000498506    0.0000210270   -0.0000706785
   0.0000746470    0.0000039165   -0.0000787605
   0.0000691183    0.0000357934   -0.0000509137
   0.0000735646    0.0000326455   -0.0000553731
   0.0000741167    0.0000313202   -0.0000552540
   0.0000656231    0.0000325761   -0.0000332307
   0.0000741120    0.0000304466   -0.0000534975
   0.0000096504    0.0000919791    0.0001237890
  -0.0000266524    0.0000339601    0.0001557600
  -0.0000260671    0.0000323215    0.0001562540
  -0.0000275701    0.0000356974    0.0001531090
  -0.0000179018    0.0000162744    0.0001518820
  -0.0000300020    0.0000393723    0.0001525920
  -0.0000248930    0.0000347449    0.0001529080
   0.0000177988    0.0001248340    0.0001727910
  -0.0000283893    0.0000350290    0.0001513820
  -0.0000338402    0.0000471676    0.0001463100
  -0.0000278024    0.0000383335    0.0001561450
  -0.0000353450    0.0000314727    0.0001521350
   0.0001287980    0.0001431060    0.0000523685
  -0.0000300354    0.0000139170   -0.0001611320
  -0.0000315538    0.0000124016   -0.0001637310
  -0.0000311886    0.0000139470   -0.0001634060
  -0.0000391543    0.0000132299   -0.0001471960
  -0.0000280362    0.0000105041   -0.0001662940
  -0.0000285022    0.0000152311   -0.0001596190
   0.0000106949    0.0000089087   -0.0002287590
  -0.0000276659    0.0000095990   -0.0001684080
  -0.0000294277    0.0000128708   -0.0001688700
  -0.0000263869    0.0000103593   -0.0001708730
  -0.0000381233    0.0000199890   -0.0001642360
   0.0532547000   -0.0080190500   -0.0631458000
   0.0000372502   -0.0000272387   -0.0000270248
   0.0000363085   -0.0000452815   -0.0000389008
   0.0000366664   -0.0000277466   -0.0000280235
   0.0000401517   -0.0000320213   -0.0000239398
   0.0000360207   -0.0000275732   -0.0000270636
   0.0000342430   -0.0000318846   -0.0000303208
   0.0000317416   -0.0000258354   -0.0000209699
   0.0000383895   -0.0000270053   -0.0000234157
   0.0000335717   -0.0000235311   -0.0000234587
   0.0000372017   -0.0000281151   -0.0000277600
   0.0000341116   -0.0000267961   -0.0000250809
   0.0029630800    0.0031387300   -0.0038355300
  -0.0000184241    0.0000107519   -0.0000039209
  -0.0000206001   -0.0000013696   -0.0000059982
  -0.0000181560    0.0000060897   -0.0000070261
  -0.0000279515   -0.0000093107   -0.0000162855
  -0.0000168966    0.0000059693   -0.0000057692
  -0.0000125286    0.0000063763   -0.0000072574
  -0.0000141245    0.0000123241   -0.0000067244
  -0.0000156263    0.0000052078   -0.0000060245
  -0.0000175323    0.0000065252   -0.0000061037
  -0.0000162360    0.0000025680   -0.0000068558
  -0.0000170471    0.0000076712   -0.0000059603
   0.0000265772   -0.0000167514    0.0000043596
   0.0000197106   -0.0000112565   -0.0000050655
   0.0000203568   -0.0000132936   -0.0000057013
   0.0000179996   -0.0000121792   -0.0000051969
   0.0000226236   -0.0000157660   -0.0000038601
   0.0000179858   -0.0000112229   -0.0000048659
   0.0000806697   -0.0000381632    0.0001071020
   0.0000123176   -0.0000088855   -0.0000047786
   0.0000158998   -0.0000161368   -0.0000023432
   0.0000160128   -0.0000118630   -0.0000054384
   0.0000106694   -0.0000101956   -0.0000026622
   0.0000170514   -0.0000129393   -0.0000044028
   0.0000922826   -0.0000731539   -0.0000337121
  -0.0000904803    0.0000277699    0.0000739519
  -0.0000916063    0.0000252200    0.0000746656
  -0.0000932291    0.0000253264    0.0000749403
  -0.0000832490    0.0000220880    0.0000754596
  -0.0000940514    0.0000253590    0.0000739108
   0.0003905320   -0.0002192690    0.0003067080
  -0.0000949765    0.0000270420    0.0000711539
  -0.0000953646    0.0000227669    0.0000791859
  -0.0000956841    0.0000256665    0.0000748195
  -0.0000953066    0.0000237457    0.0000759436
  -0.0000955939    0.0000245321    0.0000736276
  -0.0000223328   -0.0000003592   -0.0000157515
  -0.0000397508   -0.0000262470    0.0000205829
  -0.0000350989   -0.0000250452    0.0000255931
  -0.0000370627   -0.0000276245    0.0000256552
  -0.0000564506   -0.0000033628    0.0000547788
  -0.0000374481   -0.0000286718    0.0000242501
  -0.0000380479   -0.0000285232    0.0000279667
  -0.0000401088   -0.0000387918    0.0000377108
  -0.0000362933   -0.0000280925    0.0000274870
  -0.0000367750   -0.0000302864    0.0000289791
  -0.0000353068   -0.0000293920    0.0000260938
  -0.0000371756   -0.0000266886    0.0000271198
   0.0000082928    0.0000214805    0.0000089136
   0.0000157414    0.0000062673    0.0000044865
   0.0000202715    0.0000043254    0.0000073919
   0.0000166488    0.0000049474    0.0000060139
   0.0000331332   -0.0000175304   -0.0000068943
   0.0000149879    0.0000066932    0.0000048498
   0.0000153635    0.0000080682    0.0000061220
   0.0000155727   -0.0000009453    0.0000124064
   0.0000177835    0.0000046922    0.0000076663
   0.0000166381    0.0000041964    0.0000057042
   0.0000071741    0.0000004216    0.0000068591
   0.0000107722    0.0000054312    0.0000018896
  -0.0000159097   -0.0000098664    0.0000084237
  -0.0000193690   -0.0000178661    0.0000015848
  -0.0000174674   -0.0000132484    0.0000061329
  -0.0000193577   -0.0000131975    0.0000041731
   0.0000225675   -0.0000570657    0.0000023841
  -0.0000331739   -0.0000172813    0.0000008575
  -0.0000197672   -0.0000100646    0.0000068832
  -0.0000195266   -0.0000122825    0.0000045278
  -0.0000152756   -0.0000129707    0.0000064756
  -0.0000188511   -0.0000126882    0.0000050025
  -0.0000123367   -0.0000144853    0.0000046591
  -0.0000186151   -0.0000114506    0.0000031690
   0.0000974697    0.0000233758   -0.0000677333
   0.0000992637    0.0000118152   -0.0000804557
   0.0000957603    0.0000236789   -0.0000765867
   0.0000941903    0.0000228466   -0.0000757348
   0.0000785122   -0.0000073376   -0.0000548106
   0.0000859349    0.0000156644   -0.0000780048
   0.0000891316    0.0000268868   -0.0000726020
   0.0000885597    0.0000317806   -0.0000743678
   0.0000939339    0.0000252270   -0.0000751207
   0.0000941081    0.0000242974   -0.0000750448
   0.0000899366    0.0000247426   -0.0000701450
   0.0000983051    0.0000252914   -0.0000736125
  -0.0000367528    0.0000277949    0.0000256275
  -0.0000325252    0.0000284986    0.0000186657
  -0.0000381765    0.0000291879    0.0000249713
  -0.0000351778    0.0000266052    0.0000249955
  -0.0000381420    0.0000277382    0.0000224438
   0.0000990755    0.0000365836   -0.0000716739
  -0.0000419313    0.0000295963    0.0000277635
  -0.0000402859    0.0000247634    0.0000333685
  -0.0000390053    0.0000303580    0.0000266973
  -0.0000375355    0.0000259670    0.0000239768
  -0.0000403267    0.0000318847    0.0000304129
  -0.0001107050    0.0000670109    0.0000315642
   0.0000154421   -0.0000073224    0.0000058959
   0.0000148952   -0.0000111760    0.0000086862
   0.0000141113   -0.0000066332    0.0000048225
   0.0000157950   -0.0000073320    0.0000046705
   0.0000098175    0.0000033700    0.0000031434
   0.0000093467   -0.0000174497    0.0000126905
   0.0000155812   -0.0000024455    0.0000045842
   0.0000233018   -0.0000032749    0.0000049816
   0.0000143447   -0.0000061166    0.0000048731
   0.0000133045   -0.0000094935    0.0000023094
   0.0000159708   -0.0000017291    0.0000056466
   0.0001715740   -0.0000938169    0.0001396340
  -0.0000192107    0.0000129948    0.0000038642
  -0.0000574022    0.0000299724   -0.0000872370
  -0.0000201991    0.0000128750    0.0000036433
  -0.0000211541    0.0000106186    0.0000025240
  -0.0000204786    0.0000145313    0.0000041578
  -0.0058307100    0.0021499400   -0.0042931500
  -0.0000233514    0.0000112155    0.0000048917
  -0.0000171222    0.0000118803    0.0000067205
  -0.0000208720    0.0000126782    0.0000038304
  -0.0000190877    0.0000116395    0.0000038403
  -0.0000251546    0.0000179749    0.0000024420
  -0.0000181664    0.0000116458    0.0000035790
   0.0000930102   -0.0000238314   -0.0000763544
   0.0000768472   -0.0000183368   -0.0000470875
   0.0000910357   -0.0000246260   -0.0000750691
   0.0000899662   -0.0000290116   -0.0000731636
   0.0000933607   -0.0000223451   -0.0000764228
   0.0037950900    0.0121339000    0.0058636500
   0.0000876083   -0.0000251991   -0.0000776534
   0.0000938985   -0.0000270661   -0.0000751981
   0.0000894736   -0.0000252902   -0.0000745501
   0.0000910582   -0.0000262602   -0.0000743810
   0.0000901660   -0.0000222935   -0.0000760939
   0.0000943119   -0.0000195184   -0.0000754838
   0.0000389909    0.0000290304   -0.0000151739
   0.0000422563    0.0000238940   -0.0000397209
   0.0000387501    0.0000283249   -0.0000251105
   0.0000387356    0.0000280880   -0.0000265973
   0.0000313117    0.0000313798   -0.0000299103
   0.0000310825    0.0000276732   -0.0000332814
   0.0000325980    0.0000280286   -0.0000214784
   0.0000447298    0.0000236146   -0.0000242710
   0.0000365870    0.0000273999   -0.0000249194
   0.0000360735    0.0000285176   -0.0000234013
   0.0000347502    0.0000266526   -0.0000220754
   0.0000411811    0.0000307108   -0.0000264170
  -0.0000174983   -0.0000045622   -0.0000008820
  -0.0001604210   -0.0000519758   -0.0000107527
  -0.0000143185   -0.0000063117   -0.0000049033
  -0.0000127562   -0.0000092587   -0.0000007779
  -0.0000122768   -0.0000090032   -0.0000055536
  -0.0000212311   -0.0000034170   -0.0000054707
  -0.0000201150   -0.0000083196   -0.0000061372
  -0.0000195419    0.0000014961   -0.0000015314
  -0.0000175008   -0.0000067807   -0.0000072695
  -0.0000149560   -0.0000082401   -0.0000064766
  -0.0000159170   -0.0000099471   -0.0000007934
  -0.0000140511   -0.0000065534   -0.0000053813
   0.0000048056    0.0000103411   -0.0000124264
   0.0000195785    0.0000137031   -0.0000051887
   0.0000166998    0.0000127498   -0.0000062829
   0.0000192154    0.0000119216   -0.0000042473
   0.0000180291    0.0000102483    0.0000000142
   0.0000200350    0.0000124047   -0.0000044011
   0.0000143686    0.0000124354   -0.0000043855
   0.0000210254   -0.0000948991    0.0000817982
   0.0000196117    0.0000128565   -0.0000040065
   0.0000208392    0.0000107023   -0.0000022901
   0.0000186932    0.0000113549   -0.0000047018
   0.0000218328    0.0000144455   -0.0000017274
  -0.0000343605    0.0000235957    0.0001824930
  -0.0000934998   -0.0000289249    0.0000728748
  -0.0000886215   -0.0000273885    0.0000744792
  -0.0000908030   -0.0000264737    0.0000739017
  -0.0000864943   -0.0000351628    0.0000748836
  -0.0000918732   -0.0000258208    0.0000736221
  -0.0000961582   -0.0000235794    0.0000760320
  -0.0001045820   -0.0000218277    0.0000999658
  -0.0000922678   -0.0000248369    0.0000756439
  -0.0000907371   -0.0000258085    0.0000728752
  -0.0000911389   -0.0000256059    0.0000739696
  -0.0000907709   -0.0000236274    0.0000759498

1    
 -0.0099999016536667   0.0000000000000000  -0.0000443499379341
   0.2675530000    0.1713520000   -0.1752900000
  -0.0000621898    0.0000176073   -0.0000574446
  -0.0000666010   -0.0000063647   -0.0000727796
  -0.0000669942    0.0000158433   -0.0000557011
  -0.0000668808    0.0000194266   -0.0000433523
  -0.0000670119    0.0000157825   -0.0000547993
  -0.0000664338    0.0000116387   -0.0000595681
  -0.0000696233    0.0000220730   -0.0000440605
  -0.0000667275    0.0000165433   -0.0000452027
  -0.0000696997    0.0000191169   -0.0000499547
  -0.0000666438    0.0000131304   -0.0000546356
  -0.0000696383    0.0000168135   -0.0000511631
  -0.1324900000   -0.1106410000    0.0757838000
  -0.0000124463   -0.0000097304    0.0000698164
  -0.0000091649    0.0000079776    0.0000819909
  -0.0000163772   -0.0000156510    0.0000645405
  -0.0000379091   -0.0000599610    0.0000543520
  -0.0000140506   -0.0000121908    0.0000685364
  -0.0000044024   -0.0000088433    0.0000670057
  -0.0000134679   -0.0000106384    0.0000700295
  -0.0000127383   -0.0000178854    0.0000679590
  -0.0000172825   -0.0000176906    0.0000688801
  -0.0000140226   -0.0000185328    0.0000673263
  -0.0000149340   -0.0000098901    0.0000698456
  -0.0133432000    0.0077179400    0.0467223000
   0.0000760192   -0.0000334237   -0.0000564636
   0.0000842415   -0.0000263622   -0.0000730871
   0.0000749301   -0.0000326821   -0.0000541349
   0.0000807726   -0.0000198624   -0.0000547387
   0.0000746884   -0.0000319540   -0.0000546106
   0.0000687814   -0.0000407115   -0.0000455283
   0.0000746475   -0.0000295164   -0.0000487854
   0.0000718525   -0.0000294404   -0.0000500420
   0.0000737402   -0.0000303196   -0.0000517565
   0.0000733074   -0.0000284594   -0.0000516377
   0.0000743354   -0.0000322962   -0.0000528796
  -0.0000336492   -0.0000343828    0.0001756310
  -0.0000254151   -0.0000394908    0.0001497880
  -0.0000237133   -0.0000354552    0.0001516660
  -0.0000285749   -0.0000378005    0.0001512250
  -0.0000283633   -0.0000471825    0.0001488620
  -0.0000285745   -0.0000331017    0.0001523240
   0.0116009000    0.0024219200   -0.0096702800
  -0.0000266998   -0.0000288648    0.0001561590
  -0.0000352655   -0.0000416035    0.0001624360
  -0.0000330877   -0.0000378665    0.0001490260
  -0.0000270379   -0.0000515718    0.0001396300
  -0.0000286042   -0.0000344337    0.0001525880
  -0.0001013950    0.0000181415   -0.0000554254
  -0.0000243410   -0.0000094107   -0.0001622540
  -0.0000282287   -0.0000145381   -0.0001639640
  -0.0000282028   -0.0000109211   -0.0001668740
  -0.0000127791    0.0000006257   -0.0001789250
  -0.0000291272   -0.0000098521   -0.0001677810
  -0.0001970130    0.0079003100    0.0086903600
  -0.0000274527   -0.0000053513   -0.0001661920
  -0.0000222062   -0.0000078675   -0.0001737880
  -0.0000336377   -0.0000103938   -0.0001655590
  -0.0000305669   -0.0000159036   -0.0001690230
  -0.0000305675   -0.0000098709   -0.0001661070
   0.0000464375    0.0000514798   -0.0000642518
   0.0000655132    0.0000175358    0.0000461262
   0.0000686444    0.0000153416    0.0000541044
   0.0000666102    0.0000148941    0.0000527183
   0.0000453368    0.0000368050    0.0000920220
   0.0000654234    0.0000155165    0.0000534169
   0.0000643895    0.0000164399    0.0000467623
   0.0000688925    0.0000175741    0.0000403018
   0.0000676220    0.0000145189    0.0000540736
   0.0000673891    0.0000116165    0.0000558393
   0.0000646642    0.0000141832    0.0000541208
   0.0000688072    0.0000292364    0.0000495006
   0.0000069702   -0.0000172822   -0.0000336026
   0.0000153810   -0.0000195786   -0.0000706212
   0.0000183057   -0.0000191635   -0.0000672493
   0.0000140694   -0.0000153793   -0.0000685169
   0.0000943581   -0.0001228530   -0.0000633798
   0.0000134170   -0.0000122015   -0.0000719004
   0.0000088897   -0.0000124346   -0.0000682588
  -0.0000005326    0.0000023997   -0.0000758111
   0.0000156478   -0.0000165743   -0.0000656984
   0.0000120544   -0.0000087774   -0.0000703418
   0.0000120584   -0.0000217533   -0.0000778579
   0.0000121488   -0.0000129416   -0.0000672581
  -0.0000658075   -0.0000355591    0.0000342677
  -0.0000748565   -0.0000285782    0.0000548769
  -0.0000747019   -0.0000298254    0.0000529765
  -0.0000733864   -0.0000309288    0.0000526266
  -0.0001035510    0.0000127201    0.0000658755
  -0.0000730609   -0.0000326132    0.0000540278
  -0.0000734394   -0.0000250785    0.0000557890
  -0.0000477643   -0.0000695411    0.0000719868
  -0.0000733358   -0.0000321047    0.0000519979
  -0.0000743031   -0.0000326127    0.0000558806
  -0.0000764501   -0.0000137377    0.0000568444
  -0.0000381986   -0.0000055979    0.0000702211
   0.0000237416   -0.0000251034   -0.0001461450
   0.0000185991   -0.0000221350   -0.0001622170
   0.0000310537   -0.0000386805   -0.0001496200
   0.0000274007   -0.0000340292   -0.0001538900
  -0.0000125712   -0.0000760635   -0.0001304150
   0.0000203058   -0.0000297816   -0.0001257250
   0.0000139729   -0.0000327374   -0.0001420060
   0.0000290774   -0.0000452258   -0.0001491490
   0.0000308554   -0.0000393247   -0.0001500050
   0.0000279644   -0.0000361775   -0.0001522670
   0.0000260445   -0.0000323211   -0.0001488550
   0.0000299110   -0.0000334293   -0.0001572710
   0.0000451826   -0.0000255760    0.0001662340
   0.0000227941   -0.0000043219    0.0001710440
   0.0000338015   -0.0000149696    0.0001646800
   0.0000285197   -0.0000115847    0.0001671380
  -0.0000068470   -0.0000009418    0.0001175670
   0.0000401307   -0.0000248170    0.0001448590
   0.0000337485   -0.0000137508    0.0001533840
   0.0000207948   -0.0000028106    0.0001717290
   0.0000293957   -0.0000119253    0.0001674210
   0.0000297276   -0.0000125512    0.0001662130
   0.0000322640   -0.0000162017    0.0001623840
   0.0000291802   -0.0000065895    0.0001681170
   0.0000667886   -0.0000145995    0.0000518922
   0.0000728103   -0.0000229767    0.0000368731
   0.0000636796   -0.0000153660    0.0000511721
   0.0000642291   -0.0000164779    0.0000591546
   0.0000765575   -0.0000116533    0.0000510834
  -0.0000132171   -0.0001056030    0.0000032133
   0.0000594607   -0.0000114632    0.0000585828
   0.0000701886   -0.0000198985    0.0000423793
   0.0000624248   -0.0000137648    0.0000546770
   0.0000627565   -0.0000196156    0.0000520814
   0.0000634846   -0.0000088418    0.0000601826
  -0.0045057000   -0.0091165600    0.0013294800
   0.0000133181    0.0000147008   -0.0000684264
   0.0000150872    0.0000058774   -0.0000712686
   0.0000102288    0.0000134109   -0.0000709734
   0.0000136859    0.0000127265   -0.0000712232
   0.0000160184    0.0000192352   -0.0000671563
   0.0000134621    0.0000454561   -0.0000387328
   0.0000117679    0.0000226006   -0.0000684081
   0.0000150641    0.0000331526   -0.0000532390
   0.0000103788    0.0000138154   -0.0000702845
   0.0000135055    0.0000181037   -0.0000686340
   0.0000111302    0.0000135189   -0.0000692167
   0.0039361700    0.0013047500   -0.0089153000
  -0.0000712336    0.0000311567    0.0000503212
  -0.0000718694    0.0000322708    0.0000483031
  -0.0000721903    0.0000302304    0.0000534046
  -0.0000737410    0.0000307691    0.0000535946
  -0.0000701697    0.0000292692    0.0000571849
  -0.0000712740    0.0000301190    0.0000532765
  -0.0000722666    0.0000303602    0.0000556098
  -0.0000874858    0.0000400637    0.0001096640
  -0.0000724171    0.0000310749    0.0000542222
  -0.0000754440    0.0000307467    0.0000566696
  -0.0000725271    0.0000316959    0.0000559245
  -0.0194266000   -0.0170909000    0.0087622900
   0.0000270993    0.0000404135   -0.0001545610
  -0.0000327448   -0.0000727605   -0.0001969680
   0.0000250146    0.0000375063   -0.0001540660
   0.0000251995    0.0000370113   -0.0001517550
   0.0000276996    0.0000377503   -0.0001534470
   0.0225785000    0.0069170200   -0.0350664000
   0.0000250588    0.0000393102   -0.0001497970
   0.0000296293    0.0000368160   -0.0001498730
   0.0000232809    0.0000367972   -0.0001534590
   0.0000279111    0.0000386943   -0.0001529060
   0.0000223919    0.0000397310   -0.0001516950
   0.0000313894    0.0000359804   -0.0001534510
   0.0000282405    0.0000133154    0.0001634550
   0.0000250440    0.0000099306    0.0001653870
   0.0000253162    0.0000104915    0.0001653650
   0.0000309254    0.0000120846    0.0001613730
   0.0000298085    0.0000136169    0.0001658990
  -0.0819913000   -0.0512122000    0.0241053000
   0.0000250809    0.0000139619    0.0001656450
   0.0000299020    0.0000107568    0.0001667420
   0.0000237708    0.0000104917    0.0001659420
   0.0000247850    0.0000075744    0.0001678450
   0.0000249530    0.0000159782    0.0001682820
   0.0000311049    0.0000152330    0.0001638850
  -0.0000398991    0.0000058475   -0.0000669605
  -0.0000381227   -0.0000194443   -0.0000851226
  -0.0000618796   -0.0000159799   -0.0000539264
  -0.0000617735   -0.0000169690   -0.0000557446
  -0.0000619973   -0.0000095724   -0.0000390834
  -0.0000621679   -0.0000114632   -0.0000918899
  -0.0000672461   -0.0000172558   -0.0000600752
  -0.0000671285   -0.0000158387   -0.0000457777
  -0.0000660088   -0.0000164521   -0.0000511360