  36  432
   1   1
    27.006207214065945    17.222539848215781   -18.013036161145465
    17.222539848215781    50.808298413768007     7.388620667724187
   -18.013036161145465     7.388620667724187    59.977575250329629
   1   2
     0.000351964148101     0.000204503328911    -0.000418361456029
     0.000204503328911    -0.000427871231996     0.000284902717236
    -0.000418361456029     0.000284902717236     0.000920523410815
   1   3
    -0.000114813329742    -0.002184226709788    -0.001920550126360
     0.000395544287090     0.002634686268004     0.001092733181945
     0.000986220135274     0.003647488852853     0.002214667998276
   1   4
    -0.000131749053407     0.000034808666934    -0.000238065309955
     0.000030905132996    -0.000158661231996     0.000102123119454
    -0.000149009228784     0.000127574372024     0.000271982066109
   1   5
    -0.000114813329742     0.000395544287090     0.000986220135274
    -0.002184226709788     0.002634686268004     0.003647488852853
    -0.001920550126360     0.001092733181945     0.002214667998276
   1   6
    -0.000131749053407     0.000030905132996    -0.000149009228784
     0.000034808666934    -0.000158661231996     0.000127574372024
    -0.000238065309955     0.000102123119454     0.000271982066109
   1   7
    -0.000062841187030    -0.000363678469234    -0.000600246947646
    -0.000363678469234     0.000208188768004     0.000623002824598
    -0.000600246947646     0.000623002824598     0.004235376359170
   1   8
    -0.000403868429029     0.000674454639845     0.000922227243591
     0.000674454639845    -0.000697811231996    -0.000584797170493
     0.000922227243591    -0.000584797170493    -0.001497523571344
   1   9
    -0.000105429376245     0.000112167775696     0.000811925982438
    -0.000230883538492     0.000032011268004    -0.000112068223521
    -0.000115437031576    -0.000551776757144    -0.001158145086192
   1  10
    -0.000406535327093     0.000372143104091     0.000343134200340
     0.000140145116721    -0.000332981231996    -0.000219992425643
     0.000220373311229    -0.000477844609046    -0.000646930216589
   1  11
    -0.000105429376245    -0.000230883538492    -0.000115437031576
     0.000112167775696     0.000032011268004    -0.000551776757144
     0.000811925982438    -0.000112068223521    -0.001158145086192
   1  12
    -0.000406535327093     0.000140145116721     0.000220373311229
     0.000372143104091    -0.000332981231996    -0.000477844609046
     0.000343134200340    -0.000219992425643    -0.000646930216589
   1  13
   -13.335167490473186   -11.266717846110812     7.811059275377863
    -8.545524595488391   -18.405274566417184     3.043356041384317
    10.938898486826353     9.247200592765001   -18.434107203691937
   1  14
     0.000091595273403     0.000479260843878     0.000096526296331
     0.000396550006215    -0.000312311417181     0.000507286311350
     0.000101443444836    -0.000209118383760     0.000111463949943
   1  15
     0.000417042320332     0.002270806959796     0.001295114265580
    -0.000611011611770    -0.000205133917181     0.000035879291545
    -0.000628998116171    -0.002557045977133    -0.001178623136769
   1  16
    -0.000301329667350    -0.000100474441166    -0.000427973563818
     0.000126357932310     0.000014023582819     0.000167144908641
    -0.000012933772169    -0.000097486926280     0.000057805771863
   1  17
    -0.002445442809658    -0.004521558610921    -0.001446598016306
    -0.006708172047070    -0.007216101417181    -0.007037293440800
    -0.003913126123060    -0.007966162819568    -0.005282618905974
   1  18
    -0.000071460993686     0.000235377781906    -0.000036203036912
     0.000110489117924    -0.000462686417181    -0.000007042124609
     0.000091812407945     0.000291125274028     0.000040497395795
   1  19
     0.000885078844810     0.000594289095294    -0.000129716443617
    -0.000516909904574    -0.000502488917181    -0.000232996697383
    -0.001685524806839    -0.004212484182548    -0.001294764647642
   1  20
    -0.000026791896402     0.000391024756588     0.000096625246027
     0.000493236466909    -0.000272561417181    -0.000153670809889
    -0.000318034363240    -0.000335092865085     0.000499879219675
   1  21
     0.000053740186696    -0.000334044726717    -0.000082170567040
    -0.000290405432755    -0.000076501417181    -0.000217820850782
    -0.000109287217523     0.000505024752330    -0.000264481904160
   1  22
    -0.000396147241880    -0.000309374608961    -0.000012697966204
     0.000144677950810     0.000108213582819    -0.000019880442354
     0.000000783866527     0.000077863733558    -0.000069679611681
   1  23
    -0.000077345424251    -0.000404086686063    -0.000159412970546
     0.000163591971082     0.000706383582819     0.000296314479553
     0.000883186490110     0.001095583358509     0.000812423937021
   1  24
    -0.000165016649117     0.000480272309757     0.000088713130696
     0.000140058624782    -0.000488183917181    -0.000100220145065
     0.000016265925891    -0.000072033935010     0.000033422490529
   1  25
    -1.352414397541255     0.757822764351664     4.712990542688274
    -1.086728175564305     2.935256321586292     5.529488823979612
     2.581509281632084     1.303370964423735    -4.077634025191982
   1  26
     0.000263930525889    -0.000223431218440    -0.000298157768927
    -0.000375788997010     0.000056889086291     0.000166593840411
    -0.000245276164698     0.000087309742480     0.000433476389510
   1  27
     0.001086629274675     0.000458907688716    -0.001959372009735
     0.000205797903560    -0.000172558413709    -0.000737403802427
    -0.001268393306598    -0.000602896938929     0.001770203347522
   1  28
     0.000158652694415    -0.000145887765232    -0.000065604314322
    -0.000090621443767     0.000113039086291     0.000066741422275
    -0.000131335255355     0.000106316929323     0.000314336228584
   1  29
     0.000753841336163     0.001128638044195    -0.000153392214965
     0.002941922306926     0.003415854086291    -0.002652609500298
     0.003187719994875     0.002255222745753    -0.003986941457333
   1  30
     0.000132153398876    -0.000075772894324    -0.000108551418277
    -0.000126403072256     0.000083936586291     0.000094425205797
    -0.000102469249896    -0.000093010878127     0.000133172719074
   1  31
    -0.000446741122882    -0.000968148919650     0.000733500635184
     0.000157943658018     0.000737571586291     0.000702621324547
     0.000725828953080     0.003948429349141     0.003422402260145
   1  32
     0.000134692674126     0.000176274828696     0.000483891704167
    -0.000300951879884    -0.000218478413709    -0.000065281078290
     0.000197245523998    -0.000351712530079    -0.000225076318638
   1  33
    -0.000145099451480     0.000185933333819     0.000343574639791
     0.000117463120563    -0.000108165913709    -0.000026104188726
     0.000134354649179    -0.000430048514392    -0.000204214306294
   1  34
     0.000037213884122     0.000086371752223     0.000183744564691
    -0.000016983506043     0.000002839086291    -0.000041498223671
     0.000144548877459     0.000014627478926    -0.000213445351810
   1  35
    -0.000011159728042     0.000278051061161     0.000210676406184
     0.000060744396048    -0.000339933413709    -0.000423894038247
    -0.000206778925006    -0.000830020561786    -0.000900558606153
   1  36
     0.000102660804854    -0.000108985596228     0.000065582550385
     0.000072514931568     0.000147766586291    -0.000278472126995
     0.000141984917291    -0.000048942966662    -0.000238998607135
   1  37
    -0.000639382767651     0.000354936940427     0.002484107987069
    -0.000126371331277    -0.002877955821116    -0.004525563700758
    -0.002186838778735    -0.012694818921029    -0.012607883527207
   1  38
     0.000194883266952    -0.000231554252271    -0.000258779643984
     0.000521655305388     0.000067129178884     0.000016927389560
    -0.000760864699827    -0.000038439361393     0.000636818386433
   1  39
     0.000359458983767     0.000149473475185    -0.000054888481634
    -0.000431777184301    -0.000010033321116    -0.000202900799180
    -0.000594420538759     0.000288584689160    -0.000060933350481
   1  40
    -0.000122100049186    -0.000060581128105    -0.000105410631132
     0.000067194717772     0.000103021678884     0.000052219405918
    -0.000290656952552    -0.000118502931668    -0.000068601706055
   1  41
    -0.000119791298051    -0.001036990569430    -0.000350362801719
     0.000279863367570     0.001237466678884     0.000531242770883
     0.001471188435865     0.002885460414540     0.001636165946680
   1  42
    -0.000122579402889     0.000412592118429     0.000001164797530
     0.000126739322269    -0.000166040821116     0.000035644118317
    -0.000090802709350     0.000319788490273     0.000201652874459
   1  43
     1.161630278035126     0.249220874013838    -0.985551166132806
     1.059295486285371     0.675900239178884    -2.319347865551453
    -0.065505398588017    -0.481212829597039     0.168025746964559
   1  44
     0.000057783020289     0.000809593979643     0.000398045696505
     0.000712975761282    -0.000655205821116     0.000287724392260
     0.000753018139613    -0.000552097682898    -0.000221089543105
   1  45
    -0.000793267422546    -0.000422152628102     0.001022441737969
    -0.000434434146677     0.000283111678884     0.000008950519189
     0.000813012871923     0.000836682328097    -0.001065192956993
   1  46
    -0.000571498157038    -0.000075716720225    -0.000315633819816
     0.000264494007467     0.000084194178884     0.000126263749296
     0.000321489087415     0.000204024143035     0.000075424442604
   1  47
     0.000068266797580    -0.001391987969697    -0.001240240340133
     0.001024653242197     0.001773049178884    -0.000417200892581
     0.001711528256361     0.000311108965785     0.000240883609942
   1  48
    -0.000128715513571     0.000268500357815     0.000041025444438
     0.000288538337130    -0.000139575821116     0.000113102154580
     0.000210168379907     0.000260262163457     0.000101598545943
   1  49
    -0.007300715468785     0.002779076941315     0.011087679452132
     0.003533156129603     0.002825862610597    -0.009694250980287
     0.007617785791518     0.016542680520756    -0.022733875602634
   1  50
     0.000343156272080     0.000128222324340     0.000373088540065
    -0.000113652787642    -0.001232417389403     0.000448560339719
     0.000637088075585     0.001753939618104    -0.000639201322852
   1  51
    -0.000014746223899    -0.000353443559789     0.000176081610921
    -0.000601171033893    -0.000079014889403     0.000022673866941
    -0.001023844920847    -0.000584838594578    -0.000007393807922
   1  52
    -0.000038681855830    -0.000017653834754    -0.000099279135925
    -0.000089426116420    -0.000216534889403     0.000090367944594
    -0.000308074790419    -0.000013652739176     0.000106103540191
   1  53
     0.001515222857029     0.001148751866093    -0.001324139686167
    -0.001218019353388    -0.000820504889403     0.001054573202132
    -0.005251705323760    -0.005287011098576     0.005483248797758
   1  54
    -0.000126015957792     0.000095767841888    -0.000195428051789
     0.000069795017306    -0.000046054889403     0.000106155471290
    -0.000179608624464     0.000178560227979     0.000009195069397
   1  55
    -0.018488640824741     0.792339468324825     0.888865555148541
     0.036383923835987     1.343252397610597     1.494986815453510
     0.020314105210081    -0.232129604328383    -0.340382409725641
   1  56
     0.000043407740310     0.000546093424364    -0.000038153751340
     0.000886548181632    -0.000411779889403    -0.000194734865218
     0.000730418852634    -0.000512870603834    -0.000019748009145
   1  57
     0.000551734508790     0.000286585026335    -0.000790059061963
    -0.000121614315729    -0.000026272389403    -0.000360514543237
    -0.000508864067641    -0.000624841878944     0.000298786262104
   1  58
    -0.000566954834686     0.000047327444649     0.000022705922450
     0.000158198119602    -0.000204462389403     0.000019138095904
     0.000020125234656    -0.000411949802179     0.000147098300341
   1  59
    -0.000267481669722    -0.000515939358711    -0.000303155899714
    -0.000686924654267    -0.000497009889403     0.000430201394274
     0.000408839873075     0.000076945154811     0.000936854925747
   1  60
    -0.000273667531890     0.000091307304908    -0.000025130911373
     0.000141256252328    -0.000339699889403     0.000083057432429
    -0.000001885826780    -0.000301402041161     0.000164994231691
   1  61
    -0.001928975180005     0.003760826675306    -0.012055940656954
    -0.002130351146429    -0.015387986231996     0.008187170300633
     0.003737455123810    -0.023463059164666     0.026537603696227
   1  62
    -0.000008646724223     0.000223190970853    -0.000726127030537
    -0.000019425399427    -0.000169051231996     0.000343555356969
    -0.000001678318463    -0.000867728201575     0.000465881290546
   1  63
     0.000301791870054    -0.000001420144013     0.000073893579725
     0.000001420144013    -0.000212051231996     0.000297266730103
     0.000073893579725    -0.000297266730103     0.000171880732646
   1  64
     0.000095636532741    -0.000048074449438    -0.000058466034172
     0.000048074449438    -0.000067546231996     0.000174796939509
    -0.000058466034172    -0.000174796939509     0.000302962778544
   1  65
    -0.001928975180005     0.002130351146429     0.003737455123810
    -0.003760826675306    -0.015387986231996     0.023463059164666
    -0.012055940656954    -0.008187170300633     0.026537603696227
   1  66
    -0.000008646724223     0.000019425399427    -0.000001678318463
    -0.000223190970853    -0.000169051231996     0.000867728201575
    -0.000726127030537    -0.000343555356969     0.000465881290546
   1  67
    -0.000118126924232     0.000103694500000    -0.000630961199668
     0.000112699952181     0.000649016268004    -0.000865062433389
     0.000131117645688     0.000822620251105     0.001588199302946
   1  68
     0.000293887109106     0.000170787918394    -0.001220068886330
    -0.001367314664599    -0.001075743731996     0.001923552981018
    -0.000360654367367    -0.000961910832867     0.003227499558547
   1  69
     0.000193179099207    -0.000088682021169     0.000088758232695
     0.000088682021169    -0.000097061231996     0.000058744798564
     0.000088758232695    -0.000058744798564     0.000113464152285
   1  70
     0.000166665059094    -0.000380005108670     0.000259823351722
     0.000380005108670    -0.000011916231996    -0.000174240331728
     0.000259823351722     0.000174240331728    -0.000311428715752
   1  71
    -0.000118126924232    -0.000112699952181     0.000131117645688
    -0.000103694500000     0.000649016268004    -0.000822620251105
    -0.000630961199668     0.000865062433389     0.001588199302946
   1  72
     0.000293887109106     0.001367314664599    -0.000360654367367
    -0.000170787918394    -0.001075743731996     0.000961910832867
    -0.001220068886330    -0.001923552981018     0.003227499558547
   1  73
    -0.000688361892397    -0.000275791036587     0.003591111026615
     0.001542622752827     0.003514548582819    -0.001516992128999
     0.005885110414665     0.002297094964548    -0.005829094535752
   1  74
     0.000207965869972    -0.000497679847335    -0.000162053008963
    -0.000042822017642     0.000113976082819     0.000093320547981
    -0.000550937629842     0.000622046573834     0.000073906085187
   1  75
     0.000512308967983    -0.000462321498929     0.000156769897963
     0.000004966728489    -0.000167426417181     0.000045524634792
     0.000035748389375    -0.000218278403401     0.000401840379339
   1  76
     0.000079730236399    -0.000073546313435     0.000032096284315
     0.000024754867788     0.000125568582819     0.000022781028802
    -0.000189491854173     0.000302540859615    -0.000155047882813
   1  77
     0.008206610746592    -0.011147973046511     0.000724028403412
    -0.006894214108713     0.006999486082819     0.006828812020036
    -0.014418766171727     0.038295115885469    -0.028754497924183
   1  78
     0.000017218887504     0.000246052235378    -0.000293837919459
    -0.000110159238199     0.000135241082819    -0.000061441299384
    -0.000501343943797    -0.001231575224128     0.000301604786154
   1  79
    -0.000424481933046     0.000209796549045     0.000116500102618
     0.000150147287173    -0.000141243917181     0.000897910898801
     0.001785807976997    -0.000675789764464    -0.000047679934306
   1  80
    -0.001364394496472     0.001700424455033    -0.000738051428763
     0.000484141328123    -0.001121953917181    -0.000682461679405
     0.001231604065471    -0.002136580162314     0.000220649660027
   1  81
     0.000235139968701    -0.000186867116314     0.000313473330593
    -0.000002614378694    -0.000073501417181     0.000010040062804
     0.000127418101733    -0.000090727070066    -0.000215091936628
   1  82
    -0.000120924388549     0.000578863405427    -0.000154999085438
     0.000399036418702     0.000112636082819     0.000127800241697
     0.000357318425499    -0.000200005594479     0.000209869427409
   1  83
    -0.000120110587690    -0.000655762100756    -0.000909772566072
    -0.000698358971991     0.000175721082819    -0.000614272130618
    -0.000515051456845     0.005588117210986    -0.001631913648580
   1  84
    -0.000112629939131     0.000149960797862     0.000127501796867
     0.003249376569367     0.002253156082819    -0.004889489740855
     0.002698574419794     0.000733466460092    -0.003501451537658
   1  85
     0.000764209280134    -0.000436705017713    -0.001928065256648
    -0.000272734905738     0.000639974086291    -0.000766279290807
    -0.000811007649348     0.001359329660560    -0.001283011787198
   1  86
    -0.000143393729501     0.000269977386971     0.000110145486382
     0.000066677281954    -0.000119150913709     0.000015462690656
     0.000362037542987    -0.000188590609306    -0.000288491763105
   1  87
    -0.000138656001935     0.000152337017776    -0.000061724853863
    -0.000148437777793     0.000039741586291     0.000258554132488
    -0.000137191976918    -0.000110677497316     0.000227869425616
   1  88
    -0.000006017587044     0.000036862841431    -0.000093352155857
     0.000006763681661    -0.000088750913709     0.000011369594993
    -0.000023087661885    -0.000103450372253     0.000234347799680
   1  89
    -0.003090435766472     0.004493936786183     0.001293025708039
     0.004515006974585    -0.008547915913709    -0.001519597161959
     0.003602436858020    -0.007612676487036    -0.000248361482284
   1  90
     0.000021711462635    -0.000122156853650     0.000043811791709
     0.000081623621229    -0.000127698413709     0.000185026068791
     0.000274582876224     0.000424764187985     0.000026884135201
   1  91
    -0.000016848230822     0.000609001270103     0.000219578578532
     0.000261372596757     0.000279434086291     0.000415788247928
    -0.000389006382102    -0.000982365415136     0.001189259883783
   1  92
     0.002514447482606    -0.003785144341302     0.001897437326414
    -0.000950591999000     0.000791994086291    -0.000027635652118
    -0.000340606324576     0.002643239221503    -0.002079893382699
   1  93
    -0.000003037133811    -0.000085663249695    -0.000148898396382
     0.000044793339010     0.000006734086291    -0.000109029239862
     0.000076160159876     0.000122157086578    -0.000242587521500
   1  94
    -0.000098001675198    -0.000128821865725     0.000234615560700
    -0.000080347300467     0.000000046586291    -0.000156401600688
    -0.000027170988406     0.000019005624361    -0.000267832174555
   1  95
    -0.000337898423431     0.001735356727361     0.000402954593018
    -0.001113141302197     0.001302694086291     0.001578090167237
     0.001458500095170    -0.004178072510632     0.000971142513234
   1  96
     0.003511204339494     0.002539485877035     0.001623448977907
     0.003443982905213     0.000871269086291    -0.001828448186261
     0.001519537740421    -0.000054137633897    -0.003872361541243
   1  97
    -0.000321206993377     0.001193531542585     0.000677290147778
     0.001011239289957     0.001032271678884    -0.002270622749067
     0.003069073662217    -0.002477843829018    -0.004448053159690
   1  98
    -0.000830910149002     0.001418429484690    -0.000996432970460
     0.000400960014878    -0.001554500821116     0.000058740960098
     0.000128830012181    -0.000894219318646     0.001156909806375
   1  99
     0.000369748396864    -0.000151337721037     0.000266087237941
    -0.000007741551905    -0.000228235821116     0.000021313898004
     0.000162571330349    -0.000561132022476     0.000045328171176
   1 100
     0.000009365644116     0.000294848363945    -0.000157932104982
     0.000387746943179     0.000254269178884     0.000261795825471
     0.000221010299039     0.000369221959608     0.000205249879988
   1 101
    -0.004008403996114    -0.003741259910660     0.002151396678660
    -0.008844868060262     0.003702296678884    -0.002265367404781
    -0.001685037046490     0.012807161144099    -0.004313182422968
   1 102
    -0.000673249094724     0.000755433481658     0.002651407821392
     0.003432636089158     0.006026704178884     0.001992634508167
     0.003653371348524     0.003159790625441    -0.000768203672523
   1 103
    -0.001377241215628     0.000447810393631     0.001047641819815
     0.000965796679205    -0.000935508321116    -0.000396192641794
     0.003162841423532    -0.001411379067195    -0.000637890135749
   1 104
     0.000157468121239    -0.000790696486804     0.000321015819671
     0.000012515306371    -0.000007645821116     0.000014923908001
    -0.000577708470705     0.001222736722471    -0.000539411259756
   1 105
     0.000359401938489    -0.000239020982177     0.000237523455869
    -0.000041881669934     0.000145504178884    -0.000119659678499
     0.000078053499175     0.000179317381593     0.000056237979633
   1 106
     0.000059230825858     0.000090528401679     0.000006563763442
     0.000067018614439     0.000197676678884    -0.000087994475964
    -0.000122670777179     0.000168290996142    -0.000265813044944
   1 107
    -0.000117411956429     0.000435490548795     0.000363226551488
    -0.000655042240812     0.001313751678884    -0.001437410549720
    -0.003061067436735     0.006470677453781    -0.001689847797237
   1 108
     0.000242543797280     0.000346839069783    -0.000463312616320
    -0.000003125408170    -0.000007620821116    -0.000280196360205
    -0.000750510061507    -0.001840706499768     0.000674545697951
   1 109
     0.001854867713420    -0.001504017795942    -0.000013652426865
    -0.000459209021935    -0.001722474889403     0.000569908584245
    -0.006550206114355     0.004884331185032     0.000970824315315
   1 110
    -0.000505863680234     0.000674855851897     0.000501153283833
     0.000157107330085    -0.001261904889403    -0.000408602428934
     0.001221430337142    -0.002261639452383    -0.000448856215884
   1 111
     0.000610065611013    -0.000409097137209    -0.000152039921391
     0.000087456296913    -0.000177782389403    -0.000039342305849
    -0.000118007272827    -0.000035649195002     0.000090356529836
   1 112
     0.000072298836578    -0.000064684892721     0.000101390874052
     0.000178262502612     0.000024725110597     0.000324461218601
     0.000134230069401     0.000045395381603     0.000293025610719
   1 113
    -0.003543275079956     0.001073501584412    -0.004868383228385
    -0.000238850893702     0.000253472610597     0.000016196090469
     0.014077011491126    -0.017657863784491    -0.017410149430844
   1 114
     0.001235825786966    -0.001384857117787    -0.002087409637494
    -0.000284178243903     0.000262540110597     0.006142954511821
    -0.001600305622560     0.007051849089434     0.005360085170962
   1 115
     0.000598315073285    -0.000289281096635    -0.001292237901333
    -0.000549356853334     0.000956387610597     0.000879037763549
    -0.000149640652287     0.001237865779451     0.001466432773855
   1 116
    -0.000674625310667     0.000770697624825     0.000533870661584
     0.000030924235828    -0.000213667389403     0.000029081751435
     0.000888736901086    -0.001648164043171    -0.000757956577887
   1 117
     0.000156903245192    -0.000096403139579     0.000136920221681
     0.000072121592053    -0.000047742389403    -0.000003437449352
     0.000319046507647    -0.000191085654362    -0.000089164474184
   1 118
     0.000194202122142    -0.000166776172751     0.000005926526819
     0.000369054717536    -0.000264044889403    -0.000200346599968
     0.000073077401466    -0.000077212357142    -0.000123474254701
   1 119
     0.000447495764524    -0.000537591368144    -0.000364060932661
    -0.000109022161532     0.000486965110597    -0.000518515915701
     0.000828886048669     0.000153371185337    -0.001723309227905
   1 120
     0.000111744609053     0.000426593459532     0.000199250254649
    -0.000038040003718    -0.000262634889403    -0.000481082861769
    -0.001464478407461    -0.000491984077455    -0.000401269880756
   1 121
     0.000110454787328     0.000076568641499    -0.000127961847069
     0.000076568641499    -0.000214756231996    -0.000102205620843
    -0.000127961847069    -0.000102205620843    -0.000435770068097
   1 122
     0.000728172482290    -0.000757532422596    -0.001639924520811
    -0.000757532422596     0.000294453768004     0.000169127107920
    -0.001639924520811     0.000169127107920     0.001076170586859
   1 123
    -0.000199770510830     0.000000108999164    -0.000206378379141
     0.000000108999164     0.000001663768004     0.000145472638618
    -0.000206378379141     0.000145472638618     0.000044767469914
   1 124
    -0.000146126055748    -0.000124406677272     0.000577492105774
    -0.000124406677272     0.000426503768004     0.000006349658235
     0.000577492105774     0.000006349658235    -0.001796343551736
   1 125
     0.001098727897173     0.000374177041548    -0.000225591443103
     0.000374177041548    -0.000893471231996     0.000529540151298
    -0.000225591443103     0.000529540151298    -0.000428426623140
   1 126
    -0.007673343086486    -0.008998436245370    -0.005068330649754
    -0.008998436245370     0.006891953768004     0.018957833757532
    -0.005068330649754     0.018957833757532     0.032634174833284
   1 127
    -0.000621585268367     0.000390164336049     0.000541191328713
     0.000390164336049    -0.000369171231996    -0.000460415718261
     0.000541191328713    -0.000460415718261    -0.000725314514644
   1 128
     0.000415486782589    -0.000459152374369    -0.001055088712358
    -0.000459152374369     0.000129948768004     0.000264247694662
    -0.001055088712358     0.000264247694662     0.001670332397557
   1 129
    -0.000328205104314     0.000159802791570     0.000146092485444
     0.000159802791570    -0.000313516231996    -0.000212164139369
     0.000146092485444    -0.000212164139369    -0.000243705472699
   1 130
    -0.000292498112071    -0.000405841058232    -0.000092125869664
    -0.000405841058232     0.000169218768004     0.000483180147588
    -0.000092125869664     0.000483180147588     0.001159568037513
   1 131
    -0.000227314366843     0.000651025415366     0.000702910505854
     0.000651025415366    -0.000808386231996    -0.000587627891529
     0.000702910505854    -0.000587627891529    -0.000285162580934
   1 132
    -0.458207874134553    -0.911884799611175     0.127604652193469
    -0.911884799611175    -1.572231586231996     0.207901001322690
     0.127604652193469     0.207901001322690     0.003617560743296
   1 133
     0.000004123463941    -0.000002516278186     0.000028542238747
     0.000162568653528    -0.000091428917181     0.000036160856517
     0.000511248317972     0.001913673108364     0.000632452570371
   1 134
     0.000201850543277    -0.000862804892364    -0.000229859897786
    -0.000282472614002     0.001251688582819     0.000168779639412
    -0.000912181849185     0.001363031689327    -0.000266022675863
   1 135
    -0.000301037490515    -0.000117502408088    -0.000227598297077
     0.000028260944870    -0.000102143917181    -0.000068899947911
    -0.000226615367037    -0.000212198045092    -0.000060482055616
   1 136
     0.000049313597335    -0.000170743742429    -0.000232035804880
    -0.000456322865319    -0.000367178917181     0.000133551479633
    -0.000446644951392    -0.000119260178737     0.000725962593733
   1 137
     0.000273240148884     0.000470759651114     0.000146639240716
     0.001101720037232     0.000523698582819     0.000253041501732
    -0.000359493719709     0.000097095883054     0.001359057175151
   1 138
    -0.000043275487903     0.002972883559107     0.003085951861354
     0.001096365640364    -0.000985783917181    -0.005334077295268
     0.003896002401063    -0.002594778639309    -0.013004704598464
   1 139
    -0.000144078962533     0.000793996971785     0.000042129846145
     0.000140156667526    -0.000695431417181    -0.000068941331971
     0.000108056046864    -0.000657735693636    -0.000124257354332
   1 140
     0.000133524223260     0.001836950958004     0.001529905691736
    -0.001276740957010     0.000490243582819    -0.000272597743041
    -0.002014837888274    -0.004584942957455    -0.002772834460337
   1 141
    -0.000286287388393    -0.000077033492011    -0.000140583248991
     0.000144797859651     0.000084818582819     0.000109763094811
     0.000025474428031    -0.000015694987606    -0.000010358438023
   1 142
     0.000020022863619     0.000332674257988     0.000002217252113
     0.000048035686626     0.000051663582819    -0.001148738153194
     0.000417199676784    -0.000414291188310    -0.001369715397200
   1 143
    -0.000211034712133    -0.000101879757378    -0.000028336574644
     0.000493196729304    -0.000040636417181     0.000321923343734