  36  432
   1   1
    26.695463625910818    16.259897458202978   -18.982443789745702
    16.259897458202978    52.083548158696026     7.196715285941870
   -18.982443789745702     7.196715285941870    59.344389000483851
   1   2
     0.000457069632074     0.000347945571932    -0.000470726503382
     0.000347945571932    -0.000374341304012     0.000276126942806
    -0.000470726503382     0.000276126942806     0.000864129659326
   1   3
     0.000098968579692    -0.002944215297075    -0.001928547639043
     0.001011616955685     0.004272908695988     0.001564413160350
     0.001438293184789     0.005164937076168     0.002529548130689
   1   4
    -0.000223453092446     0.000001468792745    -0.000272243075171
     0.000023101201606    -0.000188841304012     0.000074094529973
    -0.000152855166084     0.000189050768302     0.000198770506977
   1   5
     0.000098968579692     0.001011616955685     0.001438293184789
    -0.002944215297075     0.004272908695988     0.005164937076168
    -0.001928547639043     0.001564413160350     0.002529548130689
   1   6
    -0.000223453092446     0.000023101201606    -0.000152855166084
     0.000001468792745    -0.000188841304012     0.000189050768302
    -0.000272243075171     0.000074094529973     0.000198770506977
   1   7
    -0.000142216253980    -0.000719031209604    -0.000773803640769
    -0.000719031209604    -0.000065841304012     0.000753759963925
    -0.000773803640769     0.000753759963925     0.005658989534789
   1   8
    -0.000721343903162     0.000771821496033     0.000990066195573
     0.000771821496033    -0.000759341304012    -0.000448626729314
     0.000990066195573    -0.000448626729314    -0.001488271198515
   1   9
    -0.000088852325271     0.000135441151957     0.000950790283360
    -0.000272669601002     0.000025158695988    -0.000068061758311
    -0.000098791277960    -0.000656432544377    -0.001149200627384
   1  10
    -0.000568911550175     0.000567192295460     0.000344333002062
     0.000141552138887    -0.000342591304012    -0.000169231287608
     0.000221999509085    -0.000518475452422    -0.000653247852509
   1  11
    -0.000088852325271    -0.000272669601002    -0.000098791277960
     0.000135441151957     0.000025158695988    -0.000656432544377
     0.000950790283360    -0.000068061758311    -0.001149200627384
   1  12
    -0.000568911550175     0.000141552138887     0.000221999509085
     0.000567192295460    -0.000342591304012    -0.000518475452422
     0.000344333002062    -0.000169231287608    -0.000653247852509
   1  13
   -13.093258136055303   -11.323834683638202     7.911083994347140
    -8.488258234990509   -19.027224607328321     3.140105466795041
    10.792818096317594     9.380757484328150   -18.091034050188370
   1  14
     0.000024923660823     0.000491870320089     0.000048039339812
     0.000481937451055    -0.000321857328318     0.000721682459315
     0.000163268649713    -0.000173484599108     0.000234281560922
   1  15
     0.000493737387203     0.002939201054535     0.001465588237738
    -0.001170846192406    -0.000600607328318     0.000537625030539
    -0.000875136054999    -0.003204831604098    -0.001001601943797
   1  16
    -0.000370849835785    -0.000072155019138    -0.000591562140606
     0.000110887261362     0.000014392671682     0.000153710541682
    -0.000038112260675    -0.000128253306321     0.000062477656599
   1  17
    -0.003087152063539    -0.004131629916359    -0.001118521662865
    -0.009323065579542    -0.008551607328318    -0.011594078558079
    -0.004158198131591    -0.008177132950988    -0.005562106484804
   1  18
    -0.000122171469034     0.000337213404654    -0.000083762314470
     0.000216136067386    -0.000496357328318     0.000013060456969
     0.000138245438031     0.000358312710346     0.000050287456568
   1  19
     0.001162787752286     0.000720560081455    -0.000250299391907
    -0.000448538460718    -0.000406107328318    -0.000342300480680
    -0.001442637187183    -0.004481113158284    -0.001373684802006
   1  20
    -0.000154279624891     0.000448976279282    -0.000048778099063
     0.000563150607826    -0.000108357328318    -0.000032597566476
    -0.000570994528784    -0.000340321303532     0.000693282899837
   1  21
     0.000110544096255    -0.000375274653323    -0.000034381071231
    -0.000273363593937    -0.000032107328318    -0.000217775894354
    -0.000060532144970     0.000737020784244    -0.000129284872320
   1  22
    -0.000504245757029    -0.000438400602346    -0.000039529459811
     0.000121480038784     0.000089642671682    -0.000014999813532
    -0.000056278329045     0.000014397981544    -0.000172948488495
   1  23
    -0.000015292398060    -0.000470061272862    -0.000147740411157
     0.000122907323133     0.000727392671682     0.000298059676528
     0.000971665762900     0.001104543674903     0.000967096012568
   1  24
    -0.000247344552476     0.000676739006635     0.000103437201543
     0.000241613337445    -0.000564107328318    -0.000037715209836
    -0.000080169823488    -0.000058479200239     0.000005557788015
   1  25
    -1.453161487449310     0.583833214559773     4.583148611112595
    -1.327420914668549     2.919263549558257     5.682395822050425
     2.608359547225737     1.415978194408553    -3.996793661014583
   1  26
     0.000406477838482    -0.000274553339497    -0.000273810223853
    -0.000391797820367    -0.000027450441744     0.000062075521123
    -0.000184065445351    -0.000003751890620     0.000302744964183
   1  27
     0.001334917532359     0.000744391633140    -0.002202516210759
     0.000298758634675    -0.000466200441744    -0.001522755293961
    -0.001618541621353    -0.001326522483025     0.001479850782448
   1  28
     0.000141655942524    -0.000197944730958    -0.000044031133485
    -0.000080276102710     0.000139049558256     0.000059934843674
    -0.000111897706861     0.000109852112015     0.000314945004428
   1  29
     0.000867991197243     0.001719572123417    -0.000261025839202
     0.003845934306386     0.005184049558256    -0.003104441536111
     0.003982727126646     0.001828962923881    -0.004756999080648
   1  30
     0.000169307956457    -0.000091620314861    -0.000101939342095
    -0.000142669821768     0.000087549558256     0.000089189170269
    -0.000086469688739    -0.000157250781900     0.000087741906198
   1  31
    -0.000759601396054    -0.001693788067631     0.000848616454603
    -0.000321990713273     0.000373799558256     0.001020436056953
     0.000315412126477     0.004254032355258     0.004729206596273
   1  32
     0.000279227917176     0.000218957612767     0.000684271309548
    -0.000384293776170    -0.000262200441744    -0.000067657610161
     0.000226221830448    -0.000330902033724    -0.000056486328811
   1  33
    -0.000169527326091     0.000245490894042     0.000392759893242
     0.000095274099811    -0.000113450441744    -0.000020187575725
     0.000106719162412    -0.000465124020671    -0.000264462824801
   1  34
     0.000055035367443     0.000124399957910     0.000235956991046
    -0.000026449845924     0.000022799558256    -0.000014678965851
     0.000104406641734     0.000032156126164    -0.000124545500549
   1  35
    -0.000065021700380     0.000373027521698     0.000292187246440
     0.000161574696930    -0.000363950441744    -0.000566587927606
    -0.000129072315689    -0.001018326418221    -0.001202747695641
   1  36
     0.000097754732365    -0.000177378234905     0.000107843852918
     0.000089852909039     0.000175799558256    -0.000379002056247
     0.000207768703713    -0.000064839412787    -0.000201799530401
   1  37
    -0.001071040182178     0.000244581646933     0.001997694650134
     0.001666429789371    -0.001785799758873    -0.005648769559672
     0.000547119923609    -0.011841048548182    -0.013553323149992
   1  38
     0.000307477005163    -0.000335103882673    -0.000347806483389
     0.000623383563388     0.000143200241127    -0.000002156984493
    -0.000907811579804     0.000030568096490     0.000602813846155
   1  39
     0.000459459255798     0.000216305012097    -0.000007992637022
    -0.000420475195399     0.000081700241127    -0.000203606641203
    -0.000599528374769     0.000384022507380    -0.000018094586235
   1  40
    -0.000170651690700    -0.000058243823307    -0.000144648891012
     0.000059603545547     0.000123700241127     0.000041636277389
    -0.000337013818085    -0.000136994322417    -0.000174159495885
   1  41
    -0.000101329049172    -0.001262770125840    -0.000408570120867
     0.000265084877192     0.001302700241127     0.000550037257869
     0.001853486176184     0.003271540469076     0.001958382449407
   1  42
    -0.000203400328853     0.000598221043503     0.000004994607546
     0.000155434819292    -0.000210299758873     0.000102802215515
    -0.000159328247140     0.000319576118731     0.000121411872759
   1  43
     1.143468090370894     0.269327176045226    -0.889830175116398
     1.119913168667170     0.721848450241127    -2.340254471434315
    -0.045497615219834    -0.478904275991036     0.153020532811336
   1  44
     0.000113546811400     0.000867091561667     0.000520576216176
     0.000901061351483    -0.000585049758873     0.000542637978592
     0.000945823537732    -0.000452852789921    -0.000059149536488
   1  45
    -0.000929921500469    -0.000466437300035     0.001135114092194
    -0.000643663289802     0.000428450241127     0.000135619401153
     0.000908206378631     0.001183026735769    -0.001055395437175
   1  46
    -0.000744230530402    -0.000040183055176    -0.000449439281512
     0.000215956141240     0.000085950241127     0.000106378980297
     0.000286110422914     0.000200980065433     0.000083535391166
   1  47
     0.001755103494185    -0.002212239615195    -0.002427509382441
     0.002767939999567     0.001719950241127    -0.001403458577310
     0.003374503262656     0.000204018282196     0.000599412220228
   1  48
    -0.000137630976646     0.000240956759651    -0.000033048238485
     0.000441670175398     0.000125950241127     0.000192089643106
     0.000161698407558     0.000599215236473     0.000215387234508
   1  49
    -0.009421472147156     0.002196648102505     0.015744578073548
     0.003547456349912    -0.002931392455633    -0.011853312968392
     0.000619532617212     0.011462316587735    -0.020355429082161
   1  50
     0.000423618102384     0.000111625018372     0.000595081575144
    -0.000022803482247    -0.001488892455633     0.000484980772064
     0.000787809549313     0.002183923951088    -0.000903137525713
   1  51
     0.000031340589321    -0.000447682384881     0.000289356551310
    -0.000634416009657    -0.000069892455633     0.000047091945211
    -0.000820654341758    -0.000390655983649    -0.000123645362691
   1  52
    -0.000061260274869    -0.000030517866846    -0.000121598541055
    -0.000105733675676    -0.000239642455633     0.000125032236834
    -0.000427812538183    -0.000035816469144     0.000138293359635
   1  53
     0.002123166673257     0.001745020038188    -0.001795416512960
    -0.001049915375693    -0.000611392455633     0.000796385510266
    -0.006118585695406    -0.006666216820717     0.006472729131271
   1  54
    -0.000187718791006     0.000116232137402    -0.000239868419321
     0.000062372508325    -0.000053642455633     0.000143993259125
    -0.000254011313448     0.000196970569059    -0.000058258125378
   1  55
    -0.061942193061064     0.741817492522262     0.833531023193429
    -0.040970196516108     1.369902357544367     1.520040203368770
     0.035864910653774    -0.218069676052517    -0.330901397385695
   1  56
    -0.000004181241147     0.000633583651173    -0.000150711553610
     0.001104190805531    -0.000490142455633    -0.000128686369053
     0.000875546197453    -0.000626483546997     0.000051571580449
   1  57
     0.000732702400432     0.000321637381713    -0.000881947795521
     0.000048015700214    -0.000085642455633    -0.000529388407244
    -0.000477016986978    -0.000661968607916     0.000387078306035
   1  58
    -0.000741694673182     0.000102199192052    -0.000048183983631
     0.000142776732811    -0.000195392455633     0.000032416560290
     0.000031350591545    -0.000415932439958     0.000170981344261
   1  59
    -0.000263758402653    -0.000887283167031    -0.000239198741414
    -0.001084581932850    -0.001178642455633     0.000625675750938
     0.000345356413356    -0.000080535001652     0.001593439655201
   1  60
    -0.000310533295953     0.000184803940313    -0.000102709461462
     0.000219604521197    -0.000385392455633     0.000186228341133
    -0.000075381502151    -0.000396876426406     0.000319062931570
   1  61
    -0.003008573151449     0.002249203501885    -0.014384896137274
    -0.005730737549124    -0.023597341304012     0.001890259369498
     0.003886908434711    -0.026805182105438     0.022668430363943
   1  62
    -0.000017019891689     0.000291618734037    -0.000891175162390
    -0.000005318476519    -0.000213841304012     0.000307287917492
    -0.000014661349983    -0.001045987210617     0.000336415485952
   1  63
     0.000363128452125     0.000052034333190     0.000142153544162
    -0.000052034333190    -0.000195341304012     0.000314100665853
     0.000142153544162    -0.000314100665853    -0.000022600191318
   1  64
     0.000104735486879    -0.000044691219599    -0.000080184449295
     0.000044691219599    -0.000096341304012     0.000215137405316
    -0.000080184449295    -0.000215137405316     0.000287273874100
   1  65
    -0.003008573151449     0.005730737549124     0.003886908434711
    -0.002249203501885    -0.023597341304012     0.026805182105438
    -0.014384896137274    -0.001890259369498     0.022668430363943
   1  66
    -0.000017019891689     0.000005318476519    -0.000014661349983
    -0.000291618734037    -0.000213841304012     0.001045987210617
    -0.000891175162390    -0.000307287917492     0.000336415485952
   1  67
    -0.000460639997121     0.000547095658857    -0.000679664298320
    -0.000514208429552     0.001861408695988    -0.001163322988230
     0.000502462028595     0.000721686586823     0.002186958955228
   1  68
     0.000283341637168     0.002459689146033    -0.001602888732145
    -0.003374022375113     0.000187908695988     0.003088176795960
    -0.000640902760489     0.000121421971589     0.004422075370646
   1  69
     0.000262494050073    -0.000139482634508     0.000082957363198
     0.000139482634509    -0.000111341304012     0.000036156661158
     0.000082957363198    -0.000036156661158     0.000237745481653
   1  70
     0.000173883988411    -0.000512745878743     0.000260148497379
     0.000512745878744    -0.000106341304012    -0.000149949398010
     0.000260148497379     0.000149949398010    -0.000277089363601
   1  71
    -0.000460639997121     0.000514208429552     0.000502462028595
    -0.000547095658857     0.001861408695988    -0.000721686586823
    -0.000679664298320     0.001163322988230     0.002186958955228
   1  72
     0.000283341637168     0.003374022375113    -0.000640902760489
    -0.002459689146033     0.000187908695988    -0.000121421971589
    -0.001602888732145    -0.003088176795960     0.004422075370646
   1  73
     0.000742028330351     0.000001474536942     0.005004227082572
     0.000903828270281     0.005816642671682    -0.000771570669908
     0.004411825052791     0.003936192651506    -0.006589318575439
   1  74
     0.000228278529682    -0.000634371175323    -0.000186661431221
    -0.000047762098466     0.000100392671682     0.000104421913461
    -0.000658694266366     0.000842546742524    -0.000032617282370
   1  75
     0.000604822235154    -0.000563110420204     0.000222136598814
    -0.000070274099642    -0.000102357328318    -0.000037895400704
     0.000057022531745    -0.000182528598193     0.000444430103686
   1  76
     0.000072852753716    -0.000067921833320     0.000022164560001
     0.000026562766311     0.000140392671682     0.000024038484547
    -0.000245541809444     0.000363693095551    -0.000211437916521
   1  77
     0.013203482971991    -0.012995516087920    -0.003169518012075
    -0.006387397212140    -0.000659607328318     0.024755090906550
    -0.008554685114641     0.030976212659423    -0.039404150522648
   1  78
     0.000037771211577     0.000236547619797    -0.000314379123213
    -0.000123522168355     0.000088892671682    -0.000084158989663
    -0.000716697373026    -0.001510405824442     0.000251177743980
   1  79
    -0.000312334099569     0.000132713158703    -0.000234597376775
     0.000509222855483    -0.000216857328318     0.000378039185558
     0.002080990077865    -0.000825724965067     0.000393192610624
   1  80
    -0.001436557922798     0.002356489904770    -0.002612491290855
     0.001002673289007    -0.000977107328318    -0.002573814695407
     0.001722169297818    -0.002792789013423    -0.000660586257954
   1  81
     0.000259049290848    -0.000154558084354     0.000393865792852
    -0.000020458703158    -0.000025607328318     0.000020410453362
     0.000118020243017    -0.000034729041394    -0.000224776343590
   1  82
    -0.000182016889685     0.000848517161218    -0.000254156391269
     0.000527796387896     0.000184642671682     0.000205511115413
     0.000384576642165    -0.000306157007020     0.000269610523439
   1  83
     0.000253134180879    -0.000370785364800    -0.002256787792495
    -0.000567637740116     0.000105892671682    -0.001830181780624
     0.000824754640829     0.005759359829290    -0.001621678902013
   1  84
    -0.000059374247969    -0.000673155376309    -0.001542947049829
     0.005357402269313     0.000856892671682    -0.009928159523872
     0.003752260998431     0.000789373147456    -0.003240003232027
   1  85
     0.001024107915318    -0.001193964938010    -0.002928413846145
     0.000147543413342     0.000848299558256    -0.002196923720200
    -0.000587052776044     0.002775851926365    -0.002568215384273
   1  86
    -0.000172784834285     0.000326830286105     0.000122493797560
     0.000106269750416    -0.000147200441744    -0.000013071853272
     0.000440971700257    -0.000163406423196    -0.000334669152197
   1  87
    -0.000139622380037     0.000235148108273    -0.000098758958686
    -0.000176266546294     0.000042049558256     0.000332064791081
    -0.000125197940973    -0.000102995172286     0.000177825489983
   1  88
    -0.000003177209722     0.000061026098124    -0.000102486340599
     0.000009332942842    -0.000095450441744     0.000018421319275
    -0.000034715506536    -0.000124917303132     0.000280152080694
   1  89
    -0.003880567647109     0.007473362178136     0.000959825954631
     0.005954148731521    -0.014838200441744    -0.000517886940025
     0.000893631998626    -0.003643920149995    -0.002286467046111
   1  90
     0.000032370302944    -0.000137289603225     0.000067801142753
     0.000132668451183    -0.000102200441744     0.000224998371053
     0.000377795825360     0.000563768995256    -0.000022548374704
   1  91
    -0.000039417811762     0.001273869553223     0.000480686388029
     0.000373388112365     0.002219299558256     0.001716101652298
    -0.000634872616551    -0.001374758640899     0.002056387079805
   1  92
     0.004390678015842    -0.006945744358889     0.003331945211022
    -0.001909239936262     0.001348549558256     0.000981558935577
    -0.000285925441128     0.003083523946144    -0.002301577180674
   1  93
     0.000051595000256    -0.000108477577884    -0.000217208708988
     0.000085230868881    -0.000029450441744    -0.000145901800659
     0.000078621586242     0.000108372591064    -0.000217497792694
   1  94
    -0.000119332271599    -0.000163883584561     0.000314751672190
    -0.000060516942886     0.000049049558256    -0.000223977783739
     0.000019314339263     0.000032872767167    -0.000334699318370
   1  95
    -0.001184515078424     0.004207510237861     0.001350363801975
    -0.001850618255081     0.004247549558256     0.001894473443135
     0.000757753197432    -0.004957592700688     0.003042411366487
   1  96
     0.008593921032930     0.004853735733926     0.003758833153793
     0.012573415964625     0.005207549558256     0.002573984327269
     0.002456654224875    -0.000392199895751    -0.005875952370189
   1  97
    -0.000218525698341     0.001411895247263     0.000233428719800
     0.002049161242574     0.000967200241127    -0.004341357592293
     0.004117409227874    -0.003234200600093    -0.005027342153890
   1  98
    -0.001373252441424     0.002150261770303    -0.000510808239218
     0.001052535333145    -0.002147299758873    -0.001280028965502
     0.000164152754875    -0.000976685287606     0.001012074241794
   1  99
     0.000461353829277    -0.000081079884799     0.000348532921906
    -0.000022201120044    -0.000166799758873     0.000035267230970
     0.000144483498253    -0.000560741168249     0.000033014845420
   1 100
     0.000001590852680     0.000392278868195    -0.000190142629280
     0.000577267093016     0.000332450241127     0.000399631061792
     0.000312169450363     0.000483780434586     0.000238924045650
   1 101
    -0.008359157911440    -0.008117971983440     0.007710564188639
    -0.013370248274074    -0.000855299758873     0.000189789733860
     0.001929279311381     0.016447503138725    -0.004539367201009
   1 102
    -0.001015950651340     0.001409989385789     0.004207049261429
     0.006803661261561     0.008142700241126     0.004033354692779
     0.003621403126234     0.003038591917290    -0.000860653142081
   1 103
    -0.002191057851106     0.000451133115695     0.001405078924626
     0.000410079377961    -0.000576049758873     0.000038456795987
     0.003145731327152    -0.000710625587031    -0.000004700134502
   1 104
     0.000149006194495    -0.000910798853720     0.000372964644936
     0.000012007420182    -0.000109299758873     0.000073640865142
    -0.000641717872820     0.001456567839508    -0.000660948304813
   1 105
     0.000447527476203    -0.000292123460526     0.000312524735546
    -0.000094122929795     0.000268700241126    -0.000183170838377
     0.000166367031067     0.000178629572431     0.000143041276905
   1 106
     0.000076341877047     0.000144194849419     0.000006790019316
     0.000076325794539     0.000225450241126    -0.000100491851715
    -0.000212565861986     0.000189087709595    -0.000310663039234
   1 107
    -0.000196964664874     0.000640910781191     0.000531973438785
    -0.000236724772188     0.000733950241127    -0.001788463612311
    -0.003219579187721     0.006388488696148    -0.000884468570082
   1 108
     0.000319589204732     0.000342149681630    -0.000506411260829
     0.000031176073956    -0.000182299758873    -0.000408112089961
    -0.001009151243118    -0.002200534497315     0.000688659603762
   1 109
     0.001512848684768    -0.003090679464962     0.000546711320552
    -0.002441189527717    -0.003915392455633     0.002098934147650
    -0.007719676883921     0.004744481064780     0.001569358974074
   1 110
    -0.000574541168855     0.002762439775299     0.000202392678726
    -0.000225267186477    -0.002472392455633     0.000437744555645
     0.001301244469347    -0.002638124211724    -0.000085901491569
   1 111
     0.000731911524017    -0.000463843284663    -0.000162310766509
     0.000104508924563    -0.000191142455633    -0.000071646004826
    -0.000083757908487    -0.000014011827113     0.000024547823366
   1 112
     0.000028514967981    -0.000015205415225     0.000093470925332
     0.000218669245592     0.000096357544367     0.000424370727856
     0.000154422379872     0.000102576973707     0.000343413245919
   1 113
    -0.009893501480725     0.002959949788881    -0.011002127343686
     0.006925324320460    -0.002490142455633    -0.003269898596511
     0.016117488653376    -0.021402463262709    -0.020732365317402
   1 114
     0.000689125244047    -0.001783156762930    -0.002888525717045
    -0.001815312421274    -0.002383392455633     0.008932396103401
    -0.000771939294055     0.009269671091928     0.005193212321379
   1 115
     0.001117262236247    -0.000587003073628    -0.001896088556595
    -0.000361085455161     0.001243607544367     0.000333812473009
     0.000077117631267     0.001683328015437     0.000978858066372
   1 116
    -0.000700208253980     0.000830708765351     0.000545056997072
    -0.000077469325292    -0.000154892455633     0.000259972200535
     0.000788777202323    -0.001832217105980    -0.000773613818976
   1 117
     0.000201725478031    -0.000107513943220     0.000153300102654
     0.000084109150144    -0.000052392455633    -0.000052736256983
     0.000318432985329    -0.000141068516803    -0.000051586597081
   1 118
     0.000188768922208    -0.000157002176412     0.000006278578203
     0.000431921265859    -0.000326142455633    -0.000229712458458
     0.000006844979573    -0.000092251844645    -0.000132136808036
   1 119
     0.000550877571663    -0.000670755995483    -0.000437583111391
    -0.000191019944756     0.000709357544367    -0.000402149779584
     0.001074779723070     0.000097610249423    -0.001580105678557
   1 120
     0.000049244961935     0.000455777091590     0.000082353129130
    -0.000425399939017    -0.000304892455633    -0.000751757059502
    -0.001986025315454    -0.000509432770126    -0.000457308876929
   1 121
     0.000127959264315     0.000149516566362    -0.000106026552041
     0.000149516566362    -0.000197841304012    -0.000128987173505
    -0.000106026552041    -0.000128987173505    -0.000625139265628
   1 122
     0.000993374547369    -0.000788329581535    -0.001704944160091
    -0.000788329581535     0.000206158695988    -0.000048778836835
    -0.001704944160091    -0.000048778836835     0.000880931552977
   1 123
    -0.000290710612924    -0.000007775504407    -0.000259704960786
    -0.000007775504407     0.000038158695988     0.000190357165229
    -0.000259704960786     0.000190357165229    -0.000038848833397
   1 124
    -0.000198337341518    -0.000220166736919     0.000848549682796
    -0.000220166736919     0.000708158695988     0.000164493977149
     0.000848549682796     0.000164493977149    -0.002451666321839
   1 125
     0.001336912404699     0.000523970618149    -0.000023677352686
     0.000523970618149    -0.001059841304012     0.000700765550765
    -0.000023677352686     0.000700765550765    -0.001026466056788
   1 126
    -0.028611282763845    -0.019960567848366     0.000067351806040
    -0.019960567848366     0.005001158695988     0.023066221520790
     0.000067351806040     0.023066221520790     0.030198543503898
   1 127
    -0.000923659769907     0.000403153482226     0.000588863454120
     0.000403153482226    -0.000297841304012    -0.000338565727211
     0.000588863454120    -0.000338565727211    -0.000471703235215
   1 128
     0.000767999170782    -0.000360591826555    -0.001506724160781
    -0.000360591826555     0.000451158695988     0.000273033869312
    -0.001506724160781     0.000273033869312     0.002318625962368
   1 129
    -0.000474590310881     0.000204124793438     0.000172791736825
     0.000204124793438    -0.000447841304012    -0.000249288873872
     0.000172791736825    -0.000249288873872    -0.000252632015660
   1 130
    -0.000365177205758    -0.000521383948011    -0.000209508401363
    -0.000521383948011     0.000106158695988     0.000453375437950
    -0.000209508401363     0.000453375437950     0.001240083856895
   1 131
    -0.000312742513035     0.000881652505500     0.000763837560837
     0.000881652505500    -0.000908341304012    -0.000574366173187
     0.000763837560838    -0.000574366173187     0.000111487079945
   1 132
    -0.394143771398943    -0.870266547692865     0.114282572413699
    -0.870266547692865    -1.636491841304013     0.200385256650396
     0.114282572413699     0.200385256650396     0.004331312621647
   1 133
    -0.000060179902728    -0.000045521846274    -0.000003848810501
     0.000259471194866     0.000061392671682     0.000122312512975
     0.000616089196339     0.002556246639867     0.000781249510230
   1 134
     0.000311223241675    -0.001250343390846    -0.000244453710779
    -0.000385949070001     0.001368142671682     0.000187319508608
    -0.001032118487568     0.001615828824104    -0.000249809768886
   1 135
    -0.000361138304305    -0.000100949173977    -0.000276517589591
     0.000025947864344    -0.000113857328318    -0.000021247123160
    -0.000267635234067    -0.000229969900009    -0.000148447423741
   1 136
     0.000111698325037    -0.000172213784224    -0.000269435472287
    -0.000534948522192    -0.000582607328318     0.000048262302914
    -0.000496599661972    -0.000138720477245     0.000854960786719
   1 137
     0.000250462341757     0.000519507052141     0.000011535496916
     0.001242101100759     0.000611642671682     0.000234727766758
    -0.000589529933474    -0.000008037224449     0.001473549422456
   1 138
    -0.002622833255837     0.005974606703131     0.007887809429824
     0.001510906252618     0.000177892671682    -0.005684740780272
     0.007143825126203    -0.002072874566614    -0.016878921851092
   1 139
    -0.000274578468594     0.001069856022189    -0.000011152225315
     0.000228000881289    -0.000627107328318    -0.000011839664557
     0.000178110501072    -0.000599639469167    -0.000038113361658
   1 140
    -0.000014174562679     0.002776460221179     0.001918625643355
    -0.001961601351482     0.001693392671682    -0.000112689182216
    -0.002426829984195    -0.005491243852823    -0.003102319891757
   1 141
    -0.000339389493018    -0.000055353231313    -0.000246908695942
     0.000196468587369     0.000191392671682     0.000122487871812
     0.000029352025527     0.000020793678835     0.000058177279865
   1 142
     0.000112588859527     0.000560891733181     0.000064651865519
     0.000084786065990     0.000208142671682    -0.001451832531029
     0.000502620375736    -0.000637028798406    -0.001664987339661
   1 143
    -0.000330864874542    -0.000280732035468    -0.000104509341663
     0.000521512567877    -0.000176607328318     0.000455323080811