432  
54   

1    
  0.0099994261254959   0.0000000000000000  -0.0001071315114692
  -0.2658170000   -0.1656540000    0.1932860000
   0.0048468700   -0.0024019900   -0.0048745900
   0.0048508900   -0.0023688600   -0.0048602700
   0.0048537400   -0.0023986000   -0.0048766600
   0.0048503300   -0.0024086400   -0.0048935200
   0.0048537000   -0.0023988600   -0.0048778500
   0.0048527400   -0.0023916600   -0.0048715300
   0.0048589100   -0.0024065400   -0.0048893600
   0.0048524100   -0.0024001100   -0.0048889700
   0.0048572800   -0.0024044300   -0.0048829700
   0.0048525800   -0.0023959400   -0.0048786500
   0.0048573600   -0.0024001100   -0.0048817100
   0.1307300000    0.1086740000   -0.0780192000
  -0.0017135000   -0.0072290300    0.0045169300
  -0.0017181700   -0.0072539700    0.0045028400
  -0.0017095400   -0.0072235300    0.0045232800
  -0.0016827400   -0.0071837300    0.0045280900
  -0.0017119900   -0.0072274600    0.0045182900
  -0.0017247900   -0.0072318100    0.0045192400
  -0.0017115500   -0.0072286300    0.0045182000
  -0.0017142500   -0.0072203000    0.0045176800
  -0.0017081500   -0.0072198000    0.0045179700
  -0.0017129000   -0.0072193100    0.0045190400
  -0.0017106700   -0.0072310600    0.0045165000
   0.0153012000   -0.0067992800   -0.0450371000
   0.0004961740   -0.0012317900    0.0014147500
   0.0004867660   -0.0012418000    0.0014341300
   0.0004987820   -0.0012325700    0.0014124500
   0.0004916680   -0.0012515500    0.0014145900
   0.0004985410   -0.0012336200    0.0014129600
   0.0005076740   -0.0012171900    0.0014046000
   0.0004973860   -0.0012368300    0.0014049600
   0.0005018700   -0.0012371300    0.0014080300
   0.0004996990   -0.0012357500    0.0014094800
   0.0005009550   -0.0012383700    0.0014086700
   0.0004992220   -0.0012327600    0.0014108100
  -0.0029986100   -0.0088549400   -0.0081712100
  -0.0030128300   -0.0088477900   -0.0081451200
  -0.0030142600   -0.0088530300   -0.0081487400
  -0.0030079800   -0.0088506100   -0.0081473200
  -0.0030083200   -0.0088379300   -0.0081444300
  -0.0030076400   -0.0088571700   -0.0081487500
  -0.0144368000   -0.0116063000    0.0007924300
  -0.0030106400   -0.0088596200   -0.0081540700
  -0.0030002700   -0.0088466600   -0.0081602400
  -0.0030022400   -0.0088506600   -0.0081443700
  -0.0030274300   -0.0088295300   -0.0081247300
  -0.0030082500   -0.0088534700   -0.0081485300
  -0.0078301900   -0.0035801200   -0.0024458300
  -0.0079272900   -0.0035602200   -0.0022933500
  -0.0079237900   -0.0035551500   -0.0022899300
  -0.0079225900   -0.0035590400   -0.0022859500
  -0.0079449200   -0.0035773800   -0.0022686000
  -0.0079213700   -0.0035605700   -0.0022847200
  -0.0072846700   -0.0110056000   -0.0106773000
  -0.0079231500   -0.0035658000   -0.0022855900
  -0.0079304500   -0.0035626300   -0.0022783300
  -0.0079159200   -0.0035605300   -0.0022865900
  -0.0079205800   -0.0035504100   -0.0022847900
  -0.0079200800   -0.0035612500   -0.0022861100
  -0.0048212000   -0.0024243500    0.0050278300
  -0.0048514400   -0.0024017400    0.0048884200
  -0.0048552000   -0.0023992300    0.0048780200
  -0.0048526000   -0.0023982300    0.0048802200
  -0.0048241100   -0.0024553600    0.0048434900
  -0.0048516200   -0.0023987900    0.0048797100
  -0.0048470300   -0.0024040000    0.0048861800
  -0.0048539200   -0.0024227200    0.0048947600
  -0.0048541200   -0.0023972300    0.0048784700
  -0.0048531800   -0.0023934800    0.0048767000
  -0.0048467400   -0.0024038700    0.0048740100
  -0.0048542000   -0.0024324300    0.0048858000
   0.0017065000   -0.0072238100   -0.0045690100
   0.0017109100   -0.0072177500   -0.0045158900
   0.0017070700   -0.0072184600   -0.0045197500
   0.0017124600   -0.0072235000   -0.0045178100
   0.0015802200   -0.0070899300   -0.0044901300
   0.0017127500   -0.0072267300   -0.0045145400
   0.0017163700   -0.0072255300   -0.0045158800
   0.0017274500   -0.0072479000   -0.0044910200
   0.0017106600   -0.0072227300   -0.0045215200
   0.0017150600   -0.0072326200   -0.0045149600
   0.0017105400   -0.0072206200   -0.0044949800
   0.0017142100   -0.0072171000   -0.0045020400
  -0.0005106630   -0.0012221200   -0.0013827500
  -0.0004985710   -0.0012377900   -0.0014129200
  -0.0004988290   -0.0012369600   -0.0014108700
  -0.0005001940   -0.0012351500   -0.0014108700
  -0.0004607180   -0.0013104300   -0.0014224300
  -0.0005004720   -0.0012332300   -0.0014125600
  -0.0004999470   -0.0012472300   -0.0014164800
  -0.0005435770   -0.0011655300   -0.0014460900
  -0.0005007090   -0.0012333800   -0.0014098500
  -0.0004990270   -0.0012329300   -0.0014151100
  -0.0004879570   -0.0012769200   -0.0014261900
  -0.0005858430   -0.0012825700   -0.0014491500
   0.0030117500   -0.0088655200    0.0081454300
   0.0030228700   -0.0088717500    0.0081541400
   0.0030051000   -0.0088504900    0.0081453100
   0.0030096600   -0.0088549300    0.0081506800
   0.0030931200   -0.0087701900    0.0080715600
   0.0030198600   -0.0088653000    0.0081068100
   0.0030323200   -0.0088558100    0.0081345200
   0.0030083100   -0.0088422200    0.0081449400
   0.0030051300   -0.0088480600    0.0081455600
   0.0030089400   -0.0088526000    0.0081486500
   0.0030113200   -0.0088567500    0.0081432600
   0.0030065700   -0.0088545500    0.0081535100
   0.0079062800   -0.0035276700    0.0022819300
   0.0079291000   -0.0035870300    0.0022848300
   0.0079157900   -0.0035547100    0.0022888200
   0.0079229400   -0.0035592500    0.0022862000
   0.0080251100   -0.0035921600    0.0023954500
   0.0079162800   -0.0035410500    0.0023158700
   0.0079119900   -0.0035532900    0.0023064000
   0.0079300300   -0.0035673900    0.0022819000
   0.0079212600   -0.0035583800    0.0022855000
   0.0079213200   -0.0035577900    0.0022870800
   0.0079177700   -0.0035525600    0.0022913200
   0.0079229200   -0.0035639300    0.0022862800
  -0.0048528300    0.0023971300    0.0048803000
  -0.0048617600    0.0024064800    0.0048965600
  -0.0048486500    0.0023987400    0.0048819600
  -0.0048494900    0.0024010200    0.0048709000
  -0.0048650300    0.0023934200    0.0048796100
  -0.0045696700    0.0025986300    0.0048817700
  -0.0048422700    0.0023945900    0.0048734100
  -0.0048589200    0.0024023400    0.0048943100
  -0.0048467600    0.0023965800    0.0048776300
  -0.0048478900    0.0024036500    0.0048813300
  -0.0048482700    0.0023898200    0.0048717100
  -0.0008914190    0.0111356000    0.0037367400
   0.0017139000    0.0072249700   -0.0045173800
   0.0017098400    0.0072366900   -0.0045153300
   0.0017168100    0.0072251600   -0.0045146900
   0.0017120100    0.0072256900   -0.0045149400
   0.0017107300    0.0072189200   -0.0045173600
   0.0017405000    0.0071658200   -0.0045979100
   0.0017159200    0.0072135300   -0.0045174900
   0.0017137300    0.0071961900   -0.0045366100
   0.0017166100    0.0072247300   -0.0045151900
   0.0017122100    0.0072187500   -0.0045181700
   0.0017165700    0.0072269500   -0.0045166600
  -0.0020753100    0.0058926700    0.0036796200
  -0.0005034660    0.0012342700   -0.0014077600
  -0.0005017410    0.0012327900   -0.0014055600
  -0.0005013160    0.0012358700   -0.0014118200
  -0.0004994400    0.0012352300   -0.0014117800
  -0.0005040610    0.0012367500   -0.0014186700
  -0.0005049480    0.0012410700   -0.0014223700
  -0.0005011390    0.0012361100   -0.0014151000
  -0.0004893100    0.0012240100   -0.0014769600
  -0.0005010480    0.0012347900   -0.0014131300
  -0.0004963730    0.0012335800   -0.0014160900
  -0.0005022140    0.0012337500   -0.0014150400
   0.0176676000    0.0179982000   -0.0087521500
   0.0030100900    0.0088469300    0.0081519800
   0.0030797900    0.0089674300    0.0081986100
   0.0030127500    0.0088498800    0.0081513200
   0.0030127900    0.0088520000    0.0081481800
   0.0030094500    0.0088509000    0.0081502400
  -0.0191114000   -0.0005106980    0.0389256000
   0.0030129600    0.0088509100    0.0081466400
   0.0030061900    0.0088523100    0.0081449700
   0.0030149100    0.0088510200    0.0081504400
   0.0030087300    0.0088485900    0.0081491200
   0.0030168600    0.0088486500    0.0081491100
   0.0030013500    0.0088518800    0.0081482900
   0.0079225600    0.0035559700    0.0022905700
   0.0079228300    0.0035579500    0.0022792200
   0.0079264500    0.0035594700    0.0022880200
   0.0079168300    0.0035563100    0.0022930800
   0.0079205700    0.0035557700    0.0022878200
   0.0860651000    0.0471515000   -0.0249818000
   0.0079271800    0.0035552900    0.0022887600
   0.0079204500    0.0035599100    0.0022858900
   0.0079281400    0.0035591600    0.0022877100
   0.0079264100    0.0035630900    0.0022846400
   0.0079285400    0.0035525300    0.0022849800
   0.0079211100    0.0035543100    0.0022868000
   0.0048188100    0.0023694500   -0.0048655300
   0.0048212600    0.0023758800   -0.0048680400
   0.0048466500    0.0023997500   -0.0048786900
   0.0048467900    0.0024006700   -0.0048769300
   0.0048502300    0.0023554800   -0.0049214500
   0.0048505700    0.0023983000   -0.0048239600
   0.0048554900    0.0024015900   -0.0048695500
   0.0048554200    0.0024016500   -0.0048937900
   0.0048524300    0.0023997300   -0.0048818200
   0.0048523800    0.0024011600   -0.0048852300
   0.0048471300    0.0024008400   -0.0048688400
   0.0048472500    0.0023994000   -0.0048861900
  -0.0017092900    0.0071976100    0.0045020800
  -0.0011389100    0.0070191000    0.0047116800
  -0.0017148200    0.0072181000    0.0045173700
  -0.0017190000    0.0072324700    0.0045124100
  -0.0017282500    0.0072246900    0.0045436200
  -0.0016671400    0.0072182800    0.0045094500
  -0.0017089800    0.0072429300    0.0045116800
  -0.0017119600    0.0072132400    0.0045215400
  -0.0017103800    0.0072197000    0.0045199200
  -0.0017133800    0.0072242300    0.0045175600
  -0.0017052000    0.0072164600    0.0045083600
  -0.0017180000    0.0072267100    0.0045185000
   0.0005064580    0.0012396800    0.0013944600
   0.0005253800    0.0011463300    0.0014389100
   0.0005020080    0.0012347600    0.0014111600
   0.0004989620    0.0012318800    0.0014182600
   0.0004992290    0.0012398900    0.0013947500
   0.0004604520    0.0012283500    0.0013851900
   0.0004886780    0.0011902900    0.0013695200
   0.0004951140    0.0012404000    0.0014144100
   0.0005006730    0.0012369000    0.0014091600
   0.0005010120    0.0012349300    0.0014098900
   0.0004887800    0.0012386000    0.0014398700
   0.0005009380    0.0012337300    0.0014119100
  -0.0029599800    0.0089251600   -0.0081546700
  -0.0030090300    0.0088475900   -0.0081445200
  -0.0030074500    0.0088446000   -0.0081435400
  -0.0030098200    0.0088491300   -0.0081478000
  -0.0029991600    0.0088253000   -0.0081517500
  -0.0030126400    0.0088533900   -0.0081485800
  -0.0030152600    0.0088470100   -0.0081431000
  -0.0029271700    0.0089946500   -0.0080465300
  -0.0030111800    0.0088483700   -0.0081501500
  -0.0030177200    0.0088621600   -0.0081567100
  -0.0030118900    0.0088532700   -0.0081380800
  -0.0030270100    0.0088455900   -0.0081338300
  -0.0075805000    0.0038374400   -0.0018106200
  -0.0079266900    0.0035646200   -0.0022812200
  -0.0079273500    0.0035615400   -0.0022844700
  -0.0079272600    0.0035633700   -0.0022842000
  -0.0079334400    0.0035455500   -0.0022588500
  -0.0079234900    0.0035592600   -0.0022876700
  -0.0079222000    0.0035704800   -0.0022836600
  -0.0078889100    0.0035597200   -0.0023692000
  -0.0079226900    0.0035575200   -0.0022902400
  -0.0079248200    0.0035610300   -0.0022906200
  -0.0079232400    0.0035623700   -0.0022977400
  -0.0079351800    0.0035908500   -0.0022947900
   0.0578155000   -0.0114700000   -0.0766306000
   0.0009774390   -0.0001052420   -0.0038296500
   0.0009778630   -0.0001271420   -0.0038416800
   0.0009769650   -0.0001061640   -0.0038308000
   0.0009825700   -0.0001120690   -0.0038242200
   0.0009759340   -0.0001058530   -0.0038298300
   0.0009745030   -0.0001115740   -0.0038344300
   0.0009695110   -0.0001042740   -0.0038235800
   0.0009792790   -0.0001053320   -0.0038255400
   0.0009727110   -0.0001005720   -0.0038256900
   0.0009780370   -0.0001063140   -0.0038300400
   0.0009733060   -0.0001051330   -0.0038274900
  -0.0008929530   -0.0023133700   -0.0032919400
  -0.0031748600   -0.0048474400   -0.0003038840
  -0.0031746900   -0.0048597100   -0.0003048970
  -0.0031731000   -0.0048526200   -0.0003074310
  -0.0031779300   -0.0048741300   -0.0003146050
  -0.0031719800   -0.0048533000   -0.0003061730
  -0.0031661000   -0.0048534900   -0.0003085570
  -0.0031688200   -0.0048460100   -0.0003087410
  -0.0031696600   -0.0048535800   -0.0003060400
  -0.0031723100   -0.0048521800   -0.0003065440
  -0.0031702200   -0.0048565300   -0.0003067570
  -0.0031717800   -0.0048505700   -0.0003064980
  -0.0039772600   -0.0050205200   -0.0045586900
  -0.0039862000   -0.0050144200   -0.0045742200
  -0.0039847000   -0.0050153800   -0.0045741700
  -0.0039881800   -0.0050145800   -0.0045740700
  -0.0039811600   -0.0050175600   -0.0045716800
  -0.0039885400   -0.0050134200   -0.0045737200
  -0.0039027500   -0.0050605400   -0.0044547300
  -0.0039983300   -0.0050135500   -0.0045755000
  -0.0039892200   -0.0050169100   -0.0045699800
  -0.0039907000   -0.0050143600   -0.0045742900
  -0.0039997000   -0.0050018000   -0.0045644700
  -0.0039904100   -0.0050176600   -0.0045737700
  -0.0037773500   -0.0017011400   -0.0005705030
  -0.0039903100   -0.0015673200   -0.0004269030
  -0.0039905300   -0.0015701100   -0.0004262060
  -0.0039929900   -0.0015699300   -0.0004262260
  -0.0039790400   -0.0015736900   -0.0004235030
  -0.0039943900   -0.0015700500   -0.0004276450
  -0.0034774400   -0.0018110400   -0.0001790920
  -0.0039970700   -0.0015681500   -0.0004317940
  -0.0039943400   -0.0015722700   -0.0004216590
  -0.0039960200   -0.0015696900   -0.0004265270
  -0.0039950600   -0.0015716000   -0.0004245320
  -0.0039959800   -0.0015708200   -0.0004285380
  -0.0009511810   -0.0000624089    0.0037855100
  -0.0009816280   -0.0001042790    0.0038224800
  -0.0009750960   -0.0001026560    0.0038279500
  -0.0009777090   -0.0001058830    0.0038278800
  -0.0009866170   -0.0001198960    0.0038908800
  -0.0009787270   -0.0001076570    0.0038267900
  -0.0009781180   -0.0001070000    0.0038302400
  -0.0009812460   -0.0001187410    0.0038398900
  -0.0009765540   -0.0001066320    0.0038300000
  -0.0009773730   -0.0001092630    0.0038316000
  -0.0009739420   -0.0001075930    0.0038285600
  -0.0009771220   -0.0001044810    0.0038293100
   0.0031630700   -0.0048364000    0.0003109540
   0.0031702200   -0.0048528800    0.0003045510
   0.0031756400   -0.0048545000    0.0003080670
   0.0031709500   -0.0048539700    0.0003060190
   0.0031368200   -0.0048799000    0.0003006110
   0.0031691000   -0.0048526800    0.0003051150
   0.0031699700   -0.0048507200    0.0003061030
   0.0031703500   -0.0048577600    0.0003136990
   0.0031725500   -0.0048540200    0.0003082640
   0.0031705300   -0.0048546200    0.0003051740
   0.0031589700   -0.0048597900    0.0003069070
   0.0031630100   -0.0048562400    0.0003003630
   0.0039905500   -0.0050127700    0.0045788200
   0.0039843300   -0.0050176600    0.0045677300
   0.0039885600   -0.0050149700    0.0045750400
   0.0039854100   -0.0050154100    0.0045721700
   0.0041041300   -0.0051111500    0.0045747900
   0.0039637800   -0.0050238100    0.0045656900
   0.0039870400   -0.0050147000    0.0045769700
   0.0039861900   -0.0050150200    0.0045732300
   0.0039916600   -0.0050153400    0.0045756600
   0.0039865500   -0.0050146900    0.0045734100
   0.0039963800   -0.0050174900    0.0045723700
   0.0039872900   -0.0050142700    0.0045717900
   0.0039986000   -0.0015731500    0.0004353950
   0.0039982800   -0.0015854900    0.0004191400
   0.0039955500   -0.0015719600    0.0004242130
   0.0039933900   -0.0015728800    0.0004252510
   0.0040721500   -0.0016896300    0.0004855520
   0.0039822600   -0.0015834900    0.0004209870
   0.0039882500   -0.0015690300    0.0004279960
   0.0039878700   -0.0015623800    0.0004262410
   0.0039936100   -0.0015700600    0.0004259630
   0.0039934700   -0.0015710500    0.0004261360
   0.0039894300   -0.0015713100    0.0004309320
   0.0039991700   -0.0015699700    0.0004289980
  -0.0009771060    0.0001062790    0.0038283200
  -0.0009714100    0.0001080030    0.0038223400
  -0.0009790530    0.0001080700    0.0038273900
  -0.0009747930    0.0001043950    0.0038273300
  -0.0009796430    0.0001056660    0.0038243600
  -0.0004872710    0.0001867480    0.0035080500
  -0.0009844250    0.0001079300    0.0038296200
  -0.0009802810    0.0001022930    0.0038354100
  -0.0009800340    0.0001092250    0.0038288900
  -0.0009776150    0.0001041280    0.0038268900
  -0.0009820140    0.0001112350    0.0038326000
  -0.0010323000    0.0001312960    0.0038464000
   0.0031692300    0.0048511100    0.0003062910
   0.0031697600    0.0048467300    0.0003112450
   0.0031683100    0.0048526000    0.0003051640
   0.0031707200    0.0048520200    0.0003049990
   0.0031614700    0.0048645500    0.0003013830
   0.0031618300    0.0048344300    0.0003196120
   0.0031693200    0.0048571400    0.0003035500
   0.0031822800    0.0048574000    0.0003074440
   0.0031684100    0.0048531800    0.0003046880
   0.0031675900    0.0048501100    0.0003021660
   0.0031696000    0.0048575800    0.0003051920
   0.0033429000    0.0047653800    0.0004542060
   0.0039859600    0.0050151500    0.0045718800
   0.0039580500    0.0050666100    0.0044301200
   0.0039853400    0.0050161800    0.0045720700
   0.0039854800    0.0050153900    0.0045714100
   0.0039837300    0.0050169400    0.0045720900
  -0.0016707500    0.0068611200    0.0000233662
   0.0039785800    0.0050097200    0.0045718600
   0.0039898700    0.0050142400    0.0045762600
   0.0039846600    0.0050157500    0.0045724900
   0.0039872800    0.0050148000    0.0045727100
   0.0039776100    0.0050203300    0.0045693700
   0.0039883600    0.0050154000    0.0045721100
   0.0039926700    0.0015719000    0.0004241900
   0.0039737400    0.0015793400    0.0004643310
   0.0039902900    0.0015707700    0.0004257230
   0.0039904200    0.0015662100    0.0004281410
   0.0039920000    0.0015739400    0.0004235780
   0.0072275300    0.0138899000    0.0065055100
   0.0039848800    0.0015699300    0.0004214210
   0.0039937200    0.0015679200    0.0004259840
   0.0039885000    0.0015699800    0.0004262450
   0.0039907700    0.0015687100    0.0004266260
   0.0039880300    0.0015734400    0.0004244410
   0.0039945200    0.0015760000    0.0004264120
   0.0009849860    0.0001096140   -0.0038064100
   0.0009907300    0.0001016350   -0.0038404200
   0.0009795050    0.0001066320   -0.0038272000
   0.0009795610    0.0001063840   -0.0038291100
   0.0009705460    0.0001125920   -0.0038332900
   0.0009703230    0.0001058790   -0.0038388900
   0.0009718830    0.0001067530   -0.0038240100
   0.0009887450    0.0001010220   -0.0038237500
   0.0009767020    0.0001057920   -0.0038275400
   0.0009763150    0.0001072310   -0.0038259700
   0.0009747090    0.0001048940   -0.0038251100
   0.0009826140    0.0001091370   -0.0038285700
  -0.0031720500    0.0048521000   -0.0002990330
  -0.0031237400    0.0047365800   -0.0002537330
  -0.0031683700    0.0048527300   -0.0003048100
  -0.0031668700    0.0048503100   -0.0002995560
  -0.0031621500    0.0048508100   -0.0003052100
  -0.0031779300    0.0048556800   -0.0003055710
  -0.0031759800    0.0048505500   -0.0003070670
  -0.0031735200    0.0048596400   -0.0002983790
  -0.0031729100    0.0048520100   -0.0003085550
  -0.0031693400    0.0048506900   -0.0003072340
  -0.0031708600    0.0048495300   -0.0003006300
  -0.0031681700    0.0048523800   -0.0003054050
  -0.0040011300    0.0050189800   -0.0045823800
  -0.0039852600    0.0050154300   -0.0045733800
  -0.0039907200    0.0050154400   -0.0045758700
  -0.0039865400    0.0050143900   -0.0045727600
  -0.0039885800    0.0050154700   -0.0045692200
  -0.0039857300    0.0050152600   -0.0045730200
  -0.0039937100    0.0050141600   -0.0045734300
  -0.0039535300    0.0048653200   -0.0043130800
  -0.0039864000    0.0050161500   -0.0045727900
  -0.0039860500    0.0050166100   -0.0045714400
  -0.0039880200    0.0050148900   -0.0045742400
  -0.0039830800    0.0050169200   -0.0045689700
  -0.0037914800    0.0017156700   -0.0001287140
  -0.0039936400    0.0015650300   -0.0004287310
  -0.0039879700    0.0015673700   -0.0004260770
  -0.0039902200    0.0015685200   -0.0004271010
  -0.0039868600    0.0015602000   -0.0004257410
  -0.0039915200    0.0015691600   -0.0004275280
  -0.0039960700    0.0015719200   -0.0004256030
  -0.0039997900    0.0015777300   -0.0003921320
  -0.0039921800    0.0015705500   -0.0004252100
  -0.0039904100    0.0015694900   -0.0004288340
  -0.0039903800    0.0015695900   -0.0004272310
  -0.0039893300    0.0015712100   -0.0004250180

1    
 -0.0099994261254959   0.0000000000000000   0.0001071315114692
   0.2721290000    0.1579040000   -0.1990430000
   0.0048561000   -0.0023950700   -0.0048841500
   0.0048525500   -0.0024288200   -0.0048993400
   0.0048492900   -0.0023985900   -0.0048821100
   0.0048527100   -0.0023887200   -0.0048652700
   0.0048492800   -0.0023983900   -0.0048809100
   0.0048500500   -0.0024061800   -0.0048881700
   0.0048442600   -0.0023909900   -0.0048692100
   0.0048506400   -0.0023972400   -0.0048696800
   0.0048458400   -0.0023929500   -0.0048759100
   0.0048505900   -0.0024013600   -0.0048803400
   0.0048459000   -0.0023972200   -0.0048770900
  -0.1334330000   -0.1197880000    0.0840121000
  -0.0017130500   -0.0072191400    0.0045178800
  -0.0017081300   -0.0071944800    0.0045323900
  -0.0017169600   -0.0072249300    0.0045114700
  -0.0017436000   -0.0072645800    0.0045069500
  -0.0017144800   -0.0072207800    0.0045166400
  -0.0017012400   -0.0072164300    0.0045145700
  -0.0017145300   -0.0072195700    0.0045171000
  -0.0017120400   -0.0072279400    0.0045170500
  -0.0017182400   -0.0072285600    0.0045172400
  -0.0017134300   -0.0072289300    0.0045159100
  -0.0017156100   -0.0072175000    0.0045186000
  -0.0143185000    0.0045726500    0.0474734000
   0.0005043340   -0.0012372700    0.0014092500
   0.0005138020   -0.0012266000    0.0013898000
   0.0005016350   -0.0012365400    0.0014115400
   0.0005081620   -0.0012175300    0.0014104300
   0.0005019370   -0.0012354100    0.0014109400
   0.0004924060   -0.0012519600    0.0014206000
   0.0005029130   -0.0012323700    0.0014186900
   0.0004984460   -0.0012321100    0.0014159800
   0.0005007710   -0.0012332600    0.0014142600
   0.0004996730   -0.0012306800    0.0014148100
   0.0005011280   -0.0012362800    0.0014130500
  -0.0030201500   -0.0088474900   -0.0081282500
  -0.0030065000   -0.0088544900   -0.0081521800
  -0.0030049500   -0.0088487700   -0.0081488700
  -0.0030113300   -0.0088517300   -0.0081501500
  -0.0030107500   -0.0088638700   -0.0081529900
  -0.0030116800   -0.0088452600   -0.0081486500
   0.0084409400   -0.0061176800   -0.0170368000
  -0.0030085800   -0.0088421700   -0.0081436200
  -0.0030190700   -0.0088562200   -0.0081372900
  -0.0030171900   -0.0088514900   -0.0081533500
  -0.0029930700   -0.0088738000   -0.0081733800
  -0.0030110400   -0.0088487700   -0.0081492100
  -0.0080187600   -0.0035386100   -0.0021265500
  -0.0079190100   -0.0035584400   -0.0022812100
  -0.0079230100   -0.0035640000   -0.0022840800
  -0.0079237500   -0.0035596200   -0.0022883800
  -0.0079011700   -0.0035410400   -0.0023058500
  -0.0079250900   -0.0035582700   -0.0022894700
  -0.0085311100    0.0038770600    0.0060635200
  -0.0079234500   -0.0035529800   -0.0022885800
  -0.0079157200   -0.0035560400   -0.0022960200
  -0.0079307800   -0.0035583800   -0.0022875600
  -0.0079259500   -0.0035681200   -0.0022898800
  -0.0079263000   -0.0035574500   -0.0022882000
  -0.0048822100   -0.0023736100    0.0047353400
  -0.0048517900   -0.0023956700    0.0048705700
  -0.0048479800   -0.0023981100    0.0048809100
  -0.0048505000   -0.0023990700    0.0048785900
  -0.0048812100   -0.0023403300    0.0049164100
  -0.0048517800   -0.0023986100    0.0048793900
  -0.0048563600   -0.0023932100    0.0048721600
  -0.0048481300   -0.0023735300    0.0048617800
  -0.0048489000   -0.0024000000    0.0048801100
  -0.0048497700   -0.0024037500    0.0048820000
  -0.0048558200   -0.0023938300    0.0048836300
  -0.0048482000   -0.0023642800    0.0048720600
   0.0017203800   -0.0072246200   -0.0044674800
   0.0017156000   -0.0072306000   -0.0045195800
   0.0017191400   -0.0072296600   -0.0045153700
   0.0017139600   -0.0072249200   -0.0045172900
   0.0018460900   -0.0073563800   -0.0045450500
   0.0017136400   -0.0072216600   -0.0045208500
   0.0017096600   -0.0072226800   -0.0045206300
   0.0016983400   -0.0072001500   -0.0045431000
   0.0017158000   -0.0072258000   -0.0045135600
   0.0017113200   -0.0072155700   -0.0045200700
   0.0017154100   -0.0072292500   -0.0045397300
   0.0017122000   -0.0072307200   -0.0045321700
  -0.0004900640   -0.0012465800   -0.0014407300
  -0.0005021290   -0.0012312000   -0.0014103600
  -0.0005016020   -0.0012322100   -0.0014128500
  -0.0005002580   -0.0012338800   -0.0014129400
  -0.0005385260   -0.0011601700   -0.0014027300
  -0.0004999090   -0.0012360800   -0.0014111600
  -0.0005006070   -0.0012214400   -0.0014072800
  -0.0004557090   -0.0013050700   -0.0013789300
  -0.0004997020   -0.0012355500   -0.0014141100
  -0.0005014280   -0.0012361900   -0.0014087100
  -0.0005118130   -0.0011916800   -0.0013998000
  -0.0004145240   -0.0011854000   -0.0013727000
   0.0030064900   -0.0088365800    0.0081512000
   0.0029953600   -0.0088285100    0.0081437300
   0.0030142900   -0.0088519700    0.0081523000
   0.0030096100   -0.0088471700    0.0081468500
   0.0029255100   -0.0089360400    0.0082267600
   0.0029987500   -0.0088377600    0.0081911700
   0.0029878200   -0.0088466300    0.0081626500
   0.0030114200   -0.0088607300    0.0081525600
   0.0030140400   -0.0088539200    0.0081518100
   0.0030105000   -0.0088497400    0.0081488700
   0.0030080600   -0.0088452800    0.0081541000
   0.0030131700   -0.0088472200    0.0081432600
   0.0079381600   -0.0035904800    0.0022925500
   0.0079173100   -0.0035311900    0.0022889300
   0.0079304200   -0.0035639700    0.0022856000
   0.0079234500   -0.0035595600    0.0022880300
   0.0078237600   -0.0035283400    0.0021799500
   0.0079302000   -0.0035786800    0.0022570100
   0.0079342900   -0.0035653800    0.0022682900
   0.0079158300   -0.0035503700    0.0022930000
   0.0079252000   -0.0035604800    0.0022886100
   0.0079250700   -0.0035608900    0.0022872700
   0.0079285400   -0.0035659700    0.0022829400
   0.0079243000   -0.0035546900    0.0022880600
  -0.0048502600    0.0024001700    0.0048783500
  -0.0048415400    0.0023907500    0.0048623200
  -0.0048544200    0.0023985700    0.0048768100
  -0.0048536500    0.0023966000    0.0048884400
  -0.0048383000    0.0024037700    0.0048793900
  -0.0051418900    0.0021945000    0.0048765900
  -0.0048608800    0.0024027500    0.0048853300
  -0.0048432500    0.0023950900    0.0048637000
  -0.0048563000    0.0024007400    0.0048811800
  -0.0048551600    0.0023931500    0.0048769100
  -0.0048547000    0.0024075900    0.0048869900
  -0.0087983400   -0.0063122400    0.0060214000
   0.0017125500    0.0072235300   -0.0045175900
   0.0017162700    0.0072113600   -0.0045201300
   0.0017096300    0.0072232100   -0.0045201600
   0.0017143400    0.0072222900   -0.0045204800
   0.0017158500    0.0072293200   -0.0045174100
   0.0016865000    0.0072857800   -0.0044365100
   0.0017103700    0.0072350700   -0.0045176700
   0.0017139500    0.0072529100   -0.0044975500
   0.0017098000    0.0072236300   -0.0045201100
   0.0017143400    0.0072301200   -0.0045164900
   0.0017097900    0.0072213000   -0.0045187400
   0.0054764000    0.0085430700   -0.0126685000
  -0.0004970930    0.0012347600   -0.0014159200
  -0.0004984460    0.0012365300   -0.0014184000
  -0.0004990960    0.0012333300   -0.0014120600
  -0.0005010660    0.0012338900   -0.0014118200
  -0.0004964590    0.0012323600   -0.0014053000
  -0.0004962840    0.0012267100   -0.0013998500
  -0.0004991460    0.0012329800   -0.0014088300
  -0.0005112270    0.0012446900   -0.0013473700
  -0.0004993720    0.0012342700   -0.0014106700
  -0.0005038120    0.0012355600   -0.0014082000
  -0.0004980920    0.0012353500   -0.0014088300
  -0.0186319000   -0.0155792000    0.0058422900
   0.0030091300    0.0088555700    0.0081454700
   0.0029410900    0.0087345200    0.0081003400
   0.0030064500    0.0088523700    0.0081461200
   0.0030064500    0.0088500100    0.0081496900
   0.0030096900    0.0088514600    0.0081471300
   0.0250341000    0.0181927000   -0.0226213000
   0.0030063300    0.0088512100    0.0081510600
   0.0030128900    0.0088497300    0.0081522200
   0.0030044700    0.0088510300    0.0081472500
   0.0030106000    0.0088536200    0.0081482200
   0.0030026100    0.0088531800    0.0081485500
   0.0030187100    0.0088514800    0.0081484500
   0.0079236700    0.0035628800    0.0022836900
   0.0079216000    0.0035592700    0.0022982800
   0.0079197300    0.0035592700    0.0022863400
   0.0079298600    0.0035627500    0.0022810600
   0.0079255200    0.0035631100    0.0022865800
  -0.0693910000   -0.0401162000    0.0298076000
   0.0079191900    0.0035634100    0.0022855800
   0.0079263700    0.0035593700    0.0022878600
   0.0079184700    0.0035596900    0.0022864900
   0.0079198000    0.0035555800    0.0022897800
   0.0079181200    0.0035660500    0.0022891800
   0.0079244600    0.0035644400    0.0022883300
   0.0048810800    0.0024267500   -0.0048920300
   0.0048835800    0.0024226400   -0.0048924200
   0.0048562400    0.0023974700   -0.0048798300
   0.0048563400    0.0023966200   -0.0048818600
   0.0048533800    0.0024403700   -0.0048375600
   0.0048516100    0.0023997200   -0.0049357600
   0.0048478400    0.0023957400   -0.0048892000
   0.0048482700    0.0023962400   -0.0048658900
   0.0048506900    0.0023976200   -0.0048770400