432  
54   

1    
  0.0099999016536666   0.0000000000000000   0.0000443499379388
  -0.2893164300   -0.1782894000    0.1770346900
   0.0004411000   -0.0005478300    0.0003690700
   0.0004392100   -0.0005056000    0.0003933300
   0.0004422700   -0.0005450800    0.0003645800
   0.0004398400   -0.0005600700    0.0003218800
   0.0004420700   -0.0005453000    0.0003644200
   0.0004593600   -0.0005161200    0.0003653800
   0.0004613700   -0.0005514100    0.0003438500
   0.0004374900   -0.0005493100    0.0003470900
   0.0004481500   -0.0005583900    0.0003519000
   0.0004376700   -0.0005479100    0.0003550600
   0.0004479400   -0.0005504300    0.0003542700
   0.1480304100    0.1140805000   -0.0830586300
  -0.0003453000   -0.0002423300    0.0002372900
  -0.0003812400   -0.0002735600    0.0002449600
  -0.0003488500   -0.0002276200    0.0002475200
  -0.0002611500   -0.0002069300    0.0002821800
  -0.0003506100   -0.0002416100    0.0002397000
  -0.0003628400   -0.0002289400    0.0002437300
  -0.0003489100   -0.0002409900    0.0002483900
  -0.0003555900   -0.0002280600    0.0002384200
  -0.0003454600   -0.0002177900    0.0002480400
  -0.0003537500   -0.0002190500    0.0002422900
  -0.0003492900   -0.0002343300    0.0002460200
   0.0082314500   -0.0009010100   -0.0350258600
   0.0001350900   -0.0004635800    0.0005211800
   0.0001267600   -0.0004979900    0.0005000700
   0.0001361500   -0.0004693300    0.0005096400
   0.0001039000   -0.0005107500    0.0005429600
   0.0001351500   -0.0004670500    0.0005125900
   0.0001636500   -0.0004583800    0.0004646500
   0.0001355900   -0.0004700400    0.0004991900
   0.0001343400   -0.0004754500    0.0005032700
   0.0001346900   -0.0004716000    0.0005041000
   0.0001342600   -0.0004817100    0.0005014700
   0.0001364400   -0.0004720000    0.0005042500
  -0.0002619400    0.0004703100   -0.0003968300
  -0.0002663400    0.0004480200   -0.0004168400
  -0.0002738300    0.0004474200   -0.0004278900
  -0.0002644600    0.0004571400   -0.0004193500
  -0.0002687900    0.0004746400   -0.0004209700
  -0.0002632000    0.0004476500   -0.0004197000
  -0.0101031300   -0.0021387000    0.0062853200
  -0.0002598400    0.0004287600   -0.0004277800
  -0.0002780500    0.0004446100   -0.0004159800
  -0.0002618400    0.0004545800   -0.0004162200
  -0.0003505600    0.0004258400   -0.0004106000
  -0.0002677600    0.0004353400   -0.0004245000
   0.0001559300    0.0001889800   -0.0004990500
   0.0001741000    0.0001004700   -0.0004767200
   0.0001748000    0.0001170600   -0.0004901400
   0.0001792800    0.0001155400   -0.0004812200
   0.0001449700    0.0000983200   -0.0004775700
   0.0001830100    0.0001097200   -0.0004783600
   0.0004689800   -0.0056737500   -0.0073743900
   0.0001952000    0.0001141200   -0.0004693400
   0.0001685500    0.0001014300   -0.0004889000
   0.0001863500    0.0001122700   -0.0004777500
   0.0001829200    0.0001376200   -0.0004956600
   0.0001864000    0.0001162800   -0.0004785300
  -0.0003853000   -0.0006744600   -0.0001574700
  -0.0004343700   -0.0005497600   -0.0003488600
  -0.0004444500   -0.0005537700   -0.0003536700
  -0.0004385300   -0.0005484600   -0.0003557500
  -0.0003857900   -0.0006344700   -0.0003515200
  -0.0004346500   -0.0005476300   -0.0003492900
  -0.0004237800   -0.0005586800   -0.0003649100
  -0.0004280800   -0.0006526800   -0.0003582600
  -0.0004403600   -0.0005453700   -0.0003608700
  -0.0004355400   -0.0005424100   -0.0003631500
  -0.0004235400   -0.0005952600   -0.0003697200
  -0.0004290700   -0.0005965300   -0.0003215100
   0.0003123000   -0.0002692200   -0.0003128200
   0.0003547600   -0.0002206900   -0.0002445500
   0.0003431300   -0.0002216200   -0.0002480000
   0.0003539700   -0.0002263900   -0.0002424500
   0.0001317500   -0.0000834100   -0.0001446000
   0.0003553200   -0.0002203000   -0.0002430800
   0.0003551000   -0.0002369800   -0.0002288400
   0.0003443900   -0.0002401500   -0.0001519600
   0.0003507500   -0.0002288300   -0.0002449700
   0.0003575800   -0.0002347400   -0.0002368600
   0.0003354300   -0.0002056100   -0.0002178100
   0.0003770000   -0.0002119700   -0.0001864400
  -0.0001585900   -0.0004401700   -0.0004738000
  -0.0001342800   -0.0004731900   -0.0005075700
  -0.0001359100   -0.0004743700   -0.0005070100
  -0.0001351300   -0.0004746800   -0.0005041200
  -0.0000721800   -0.0006261600   -0.0005437000
  -0.0001382700   -0.0004762000   -0.0004999800
  -0.0001357300   -0.0004798600   -0.0005303100
  -0.0002515100   -0.0003549500   -0.0005585400
  -0.0001366900   -0.0004719300   -0.0005068800
  -0.0001315800   -0.0004724100   -0.0005100800
  -0.0001158000   -0.0005415900   -0.0005499100
  -0.0002037700   -0.0004777400   -0.0005541800
   0.0002585400    0.0004415500    0.0004587200
   0.0002985600    0.0004024900    0.0004087000
   0.0002641000    0.0004513400    0.0004195900
   0.0002741600    0.0004478900    0.0004255900
   0.0003133200    0.0005421300    0.0002531300
   0.0002615300    0.0004002100    0.0003450500
   0.0003015100    0.0004224600    0.0004277600
   0.0002668200    0.0004686200    0.0004135200
   0.0002609300    0.0004549900    0.0004187500
   0.0002692800    0.0004538200    0.0004219800
   0.0002568300    0.0004398700    0.0004211700
   0.0002639200    0.0004614900    0.0004255600
  -0.0001554500    0.0001292900    0.0004629400
  -0.0001969900    0.0000657400    0.0004645200
  -0.0001856300    0.0001158200    0.0004826400
  -0.0001752700    0.0001144200    0.0004827700
  -0.0002468700    0.0003148700    0.0007030900
  -0.0001863800    0.0001787800    0.0004942200
  -0.0002137400    0.0001357300    0.0005303500
  -0.0001614700    0.0001018900    0.0004681100
  -0.0001821200    0.0001137500    0.0004809800
  -0.0001774100    0.0001142200    0.0004844900
  -0.0001922600    0.0001208300    0.0004911300
  -0.0001685000    0.0001039700    0.0004845400
  -0.0004383800    0.0005502700   -0.0003505000
  -0.0004559600    0.0005509100   -0.0003427400
  -0.0004368300    0.0005465700   -0.0003530900
  -0.0004416900    0.0005529300   -0.0003659400
  -0.0004381200    0.0005413000   -0.0003408700
  -0.0002719300    0.0007513600   -0.0002154800
  -0.0004210700    0.0005432900   -0.0003689300
  -0.0004356400    0.0005556000   -0.0003549500
  -0.0004332100    0.0005426000   -0.0003625600
  -0.0004190900    0.0005603200   -0.0003475200
  -0.0004280400    0.0005334300   -0.0003729900
   0.0030791800    0.0074970600   -0.0011597700
   0.0003554200    0.0002075500   -0.0002516800
   0.0003563400    0.0002463300   -0.0002477100
   0.0003552000    0.0002290200   -0.0002396600
   0.0003518500    0.0002293600   -0.0002425000
   0.0003678500    0.0002210200   -0.0002355400
   0.0003711600    0.0000809600   -0.0003037900
   0.0003570400    0.0002143500   -0.0002368000
   0.0003466800    0.0002015200   -0.0002137900
   0.0003569400    0.0002332400   -0.0002356400
   0.0003425300    0.0002271500   -0.0002232400
   0.0003614400    0.0002354300   -0.0002363500
  -0.0020610100   -0.0005480100    0.0062138300
  -0.0001363000    0.0004870200   -0.0004909500
  -0.0001401100    0.0004654400   -0.0005004100
  -0.0001359600    0.0004738000   -0.0005053900
  -0.0001344500    0.0004721300   -0.0005051500
  -0.0001276200    0.0004801000   -0.0005144200
  -0.0001219600    0.0005031000   -0.0005490900
  -0.0001322800    0.0004759900   -0.0005087300
  -0.0001113700    0.0004347200   -0.0005883100
  -0.0001364100    0.0004708700   -0.0005096500
  -0.0001309100    0.0004566700   -0.0005348100
  -0.0001369300    0.0004746700   -0.0005087300
   0.0149713600    0.0121501200   -0.0059085600
   0.0002703800   -0.0004595900    0.0004251700
   0.0003272800   -0.0004016500    0.0005725600
   0.0002720200   -0.0004489200    0.0004254300
   0.0002689200   -0.0004546300    0.0004266100
   0.0002736300   -0.0004533500    0.0004234500
  -0.0188400400   -0.0072844600    0.0207518400
   0.0002651600   -0.0004826900    0.0004132700
   0.0002694500   -0.0004448000    0.0004196700
   0.0002711900   -0.0004517900    0.0004234400
   0.0002667700   -0.0004551000    0.0004194300
   0.0002797000   -0.0004530400    0.0004261700
   0.0002405800   -0.0004781800    0.0004104800
  -0.0001783800   -0.0001209400    0.0004877600
  -0.0001706200   -0.0001635700    0.0004418300
  -0.0001761400   -0.0001152300    0.0004819500
  -0.0001995000   -0.0001169600    0.0004766200
  -0.0001760700   -0.0001174200    0.0004874400
   0.0878974300    0.0534222300   -0.0080601900
  -0.0001625000   -0.0001061800    0.0004945900
  -0.0001830300   -0.0001113000    0.0004817600
  -0.0001742700   -0.0001149700    0.0004846700
  -0.0001761400   -0.0001113100    0.0004788300
  -0.0001677800   -0.0001203900    0.0004895100
  -0.0001594700   -0.0001103400    0.0004480900
   0.0004497600    0.0005266200    0.0003769000
   0.0004506800    0.0005036000    0.0004898300
   0.0004357900    0.0005452900    0.0003601500
   0.0004357800    0.0005422000    0.0003656600
   0.0004502500    0.0004636600    0.0003148600
   0.0004496100    0.0005808600    0.0004696100
   0.0004290500    0.0005681600    0.0003824300
   0.0004300000    0.0005730100    0.0003521400
   0.0004433500    0.0005487000    0.0003539100
   0.0004432600    0.0005482000    0.0003523100
   0.0004359700    0.0005455200    0.0003715900
   0.0004365200    0.0005477700    0.0003486300
  -0.0003698700    0.0002482300    0.0002570100
   0.0001103800    0.0004592800    0.0002717200
  -0.0003514600    0.0002249700    0.0002410800
  -0.0003627400    0.0002396400    0.0002295300
  -0.0003983000    0.0002305900    0.0002959700
  -0.0002552500    0.0002069600    0.0002966000
  -0.0003671000    0.0002708700    0.0002236700
  -0.0003462900    0.0002046700    0.0002415900
  -0.0003461800    0.0002234300    0.0002504200
  -0.0003525600    0.0002286900    0.0002447200
  -0.0003414900    0.0002163700    0.0002398800
  -0.0003522300    0.0002262300    0.0002437500
   0.0001491900    0.0004720300    0.0005029000
   0.0002749700    0.0003988200    0.0004529600
   0.0001359000    0.0004719800    0.0005089800
   0.0001332900    0.0004645600    0.0005154300
   0.0001543800    0.0004719800    0.0004615600
   0.0001906900    0.0004858100    0.0003720400
   0.0001002900    0.0004247000    0.0004695800
   0.0001168300    0.0004868400    0.0005134000
   0.0001386200    0.0004770700    0.0005006600
   0.0001362500    0.0004722400    0.0005044200
   0.0001247700    0.0004736800    0.0005606900
   0.0001349900    0.0004728100    0.0005062200
  -0.0001034100   -0.0002626600   -0.0006026300
  -0.0002632300   -0.0004529600   -0.0004228700
  -0.0002587500   -0.0004603100   -0.0004130800
  -0.0002669700   -0.0004545100   -0.0004208100
  -0.0002561300   -0.0004936000   -0.0004148100
  -0.0002669400   -0.0004529500   -0.0004204000
  -0.0002900500   -0.0004509500   -0.0004150700
  -0.0002529300   -0.0002237900   -0.0003342300
  -0.0002668500   -0.0004514200   -0.0004224800
  -0.0002805000   -0.0004402100   -0.0004319300
  -0.0002805400   -0.0004371800   -0.0003890500
  -0.0003001300   -0.0004560500   -0.0004072900
   0.0006718500   -0.0000008100   -0.0001352300
   0.0001786900   -0.0001035200   -0.0004771400
   0.0001779900   -0.0001097800   -0.0004830400
   0.0001759100   -0.0001108500   -0.0004806800
   0.0001564900   -0.0001142600   -0.0004276400
   0.0001828600   -0.0001127100   -0.0004835300
   0.0001826000   -0.0000899700   -0.0005016400
   0.0002144400   -0.0000673200   -0.0006005100
   0.0001820800   -0.0001170200   -0.0004829600
   0.0001784600   -0.0001187900   -0.0004807700
   0.0001739200   -0.0000952300   -0.0005200100
   0.0001380400   -0.0000652500   -0.0004849500
   0.0585222800   -0.0119571000   -0.0684273900
   0.0008203700   -0.0002562500   -0.0002700100
   0.0008340900   -0.0002753200   -0.0002749100
   0.0008234000   -0.0002560100   -0.0002692200
   0.0008444100   -0.0002604900   -0.0002518000
   0.0008228500   -0.0002560400   -0.0002700800
   0.0007964100   -0.0002674500   -0.0002722400
   0.0008093600   -0.0002567300   -0.0002694500
   0.0008295300   -0.0002568600   -0.0002672600
   0.0008194600   -0.0002439900   -0.0002660300
   0.0008288000   -0.0002538500   -0.0002683600
   0.0008197800   -0.0002553900   -0.0002694700
   0.0006966700    0.0047288900   -0.0059281500
  -0.0003326500    0.0002184800   -0.0004274400
  -0.0003258100    0.0002068200   -0.0004286500
  -0.0003214600    0.0002127500   -0.0004313200
  -0.0003794600    0.0002144500   -0.0004352100
  -0.0003259400    0.0002137800   -0.0004295000
  -0.0003111500    0.0002057000   -0.0004362400
  -0.0003188400    0.0002162600   -0.0004439700
  -0.0003164000    0.0002099000   -0.0004331900
  -0.0003192900    0.0002143800   -0.0004347600
  -0.0003139200    0.0002078000   -0.0004302800
  -0.0003217800    0.0002137500   -0.0004385700
   0.0005281200    0.0001471200   -0.0000235500
   0.0004970500    0.0001533900   -0.0000201600
   0.0005052400    0.0001530400   -0.0000192300
   0.0004999900    0.0001549500   -0.0000200400
   0.0005154600    0.0001527600   -0.0000133100
   0.0004956200    0.0001546300   -0.0000218000
   0.0005082500    0.0001742200    0.0002322600
   0.0004780800    0.0001570100   -0.0000233300
   0.0004996700    0.0001526900   -0.0000157000
   0.0004979400    0.0001553500   -0.0000185500
   0.0005743400    0.0001665200   -0.0000092800
   0.0004934400    0.0001546800   -0.0000226300
   0.0001214600   -0.0001363100    0.0000120600
   0.0000087200   -0.0001993600   -0.0000115200
   0.0000136900   -0.0002029500   -0.0000055900
   0.0000109100   -0.0002001700   -0.0000091900
   0.0000341600   -0.0002157000    0.0000191800
   0.0000050800   -0.0002025100   -0.0000108100
   0.0004970400   -0.0005589400   -0.0000009200
  -0.0000071900   -0.0002083300   -0.0000277200
   0.0000081600   -0.0002080000   -0.0000079800
   0.0000071600   -0.0002033100   -0.0000128700
   0.0000054400   -0.0002008200   -0.0000131600
   0.0000028700   -0.0002067600   -0.0000160700
  -0.0007746100   -0.0002504800    0.0002044900
  -0.0008371300   -0.0002521600    0.0002644500
  -0.0008227900   -0.0002496700    0.0002676400
  -0.0008270300   -0.0002548300    0.0002673500
  -0.0008521000   -0.0002102900    0.0002969500
  -0.0008333700   -0.0002561900    0.0002641000
  -0.0008189100   -0.0002587600    0.0002685100
  -0.0008370600   -0.0002734200    0.0002760700
  -0.0008241300   -0.0002563900    0.0002685200
  -0.0008278700   -0.0002585400    0.0002700100
  -0.0008131800   -0.0002556500    0.0002681500
  -0.0008290500   -0.0002561300    0.0002699000
   0.0003035000    0.0002322600    0.0004453500
   0.0003173800    0.0002101600    0.0004318000
   0.0003257300    0.0002143200    0.0004370000
   0.0003171100    0.0002100800    0.0004327000
   0.0005262300    0.0003048600    0.0002616000
   0.0003130400    0.0002093100    0.0004338000
   0.0003211800    0.0002124300    0.0004298600
   0.0003271500    0.0002092400    0.0004451200
   0.0003215900    0.0002122900    0.0004332500
   0.0003172400    0.0002074500    0.0004281600
   0.0002899900    0.0002187700    0.0004409300
   0.0003006600    0.0002009900    0.0004163600
  -0.0004939100    0.0001543600    0.0000174600
  -0.0005032600    0.0001564300    0.0000195500
  -0.0004967300    0.0001548500    0.0000215700
  -0.0005071400    0.0001511800    0.0000128100
  -0.0004944500    0.0000920400    0.0000109500
  -0.0005225300    0.0001527800    0.0000070400
  -0.0004993800    0.0001574600    0.0000215300
  -0.0005037900    0.0001533900    0.0000159000
  -0.0004924200    0.0001551900    0.0000227600
  -0.0005044400    0.0001539800    0.0000186100
  -0.0004659200    0.0001510900    0.0000181100
  -0.0005070300    0.0001540400    0.0000187400
  -0.0000106700   -0.0002174300    0.0000173000
  -0.0000047600   -0.0002357700    0.0000082100
  -0.0000077500   -0.0002023900    0.0000106100
  -0.0000125300   -0.0002081400    0.0000107600
   0.0002327900   -0.0004429000    0.0000226300
  -0.0000298800   -0.0002147800    0.0000123700
  -0.0000172200   -0.0002026500    0.0000143800
  -0.0000158800   -0.0001951600    0.0000027800
  -0.0000095000   -0.0002009600    0.0000089300
  -0.0000121200   -0.0002028400    0.0000068100
  -0.0000106800   -0.0002016900    0.0000170000
  -0.0000128200   -0.0001975000   -0.0000006500
  -0.0008268000    0.0002540000    0.0002671600
  -0.0008153900    0.0002635100    0.0002707700
  -0.0008273300    0.0002588200    0.0002669600
  -0.0008208800    0.0002486800    0.0002681300
  -0.0008355000    0.0002545900    0.0002653100
  -0.0007245400    0.0001411100   -0.0000202500
  -0.0008380100    0.0002528600    0.0002642600
  -0.0008250700    0.0002526300    0.0002738600
  -0.0008281700    0.0002616100    0.0002681000
  -0.0008216700    0.0002588700    0.0002703100
  -0.0008325900    0.0002638500    0.0002686600
  -0.0008539200    0.0004220800    0.0002283000
   0.0003073300   -0.0002079300    0.0004385700
   0.0003138500   -0.0002137800    0.0004459700
   0.0003176700   -0.0002110300    0.0004334400
   0.0003199500   -0.0002110500    0.0004331100
   0.0003025400   -0.0001942200    0.0004277200
   0.0003194000   -0.0002190500    0.0004481400
   0.0003157800   -0.0002063100    0.0004208000
   0.0003240400   -0.0002058000    0.0004117500
   0.0003178000   -0.0002096400    0.0004296000
   0.0003151800   -0.0002101200    0.0004251900
   0.0003166400   -0.0002064000    0.0004266000
   0.0003453900   -0.0003856900    0.0005868200
  -0.0005070700   -0.0001541300    0.0000157700
  -0.0005268800   -0.0000808700   -0.0001568600
  -0.0005029600   -0.0001534100    0.0000171800
  -0.0004996800   -0.0001520100    0.0000158400
  -0.0005074300   -0.0001530400    0.0000162700
  -0.0054355400    0.0015216200   -0.0040674100
  -0.0005241200   -0.0001612000    0.0000077700
  -0.0005032400   -0.0001536300    0.0000212000
  -0.0005024300   -0.0001539400    0.0000189100
  -0.0005008200   -0.0001542000    0.0000189700
  -0.0005130500   -0.0001498100    0.0000142000
  -0.0005019400   -0.0001542200    0.0000180300
  -0.0000131200    0.0002056500    0.0000082400
  -0.0000164200    0.0002578400    0.0000684300
  -0.0000113200    0.0002064000    0.0000101100
  -0.0000111600    0.0001987500    0.0000112400
  -0.0000142600    0.0002087100    0.0000070700
   0.0017989500    0.0137658000    0.0068701000
  -0.0000273600    0.0001992100   -0.0000075400
  -0.0000081700    0.0001995700    0.0000090000
  -0.0000139600    0.0002029400    0.0000072000
  -0.0000105000    0.0002028200    0.0000088000
  -0.0000196100    0.0002025700    0.0000029900
  -0.0000076800    0.0002114100    0.0000102500
   0.0008083000    0.0002545500   -0.0002677800
   0.0008360800    0.0002698700   -0.0002751600
   0.0008272600    0.0002566600   -0.0002666100
   0.0008267200    0.0002574500   -0.0002683800
   0.0008170000    0.0002670300   -0.0002703700
   0.0008123500    0.0002454800   -0.0002693600
   0.0008159800    0.0002579200   -0.0002576300
   0.0008559300    0.0002202600   -0.0002825700
   0.0008238100    0.0002551900   -0.0002676300
   0.0008235500    0.0002574000   -0.0002681100
   0.0008202400    0.0002545600   -0.0002634300
   0.0008290300    0.0002549400   -0.0002674400
  -0.0003226100   -0.0002156400   -0.0004285800
  -0.0002942000   -0.0005943100   -0.0003144600
  -0.0003202700   -0.0002118500   -0.0004304100
  -0.0003136500   -0.0002075500   -0.0004208900
  -0.0003074600   -0.0002113800   -0.0004294900
  -0.0003319800   -0.0002265600   -0.0004312900
  -0.0003179300   -0.0002192700   -0.0004387700
  -0.0003268500   -0.0001936500   -0.0004016700
  -0.0003245900   -0.0002152500   -0.0004398300
  -0.0003178500   -0.0002123500   -0.0004363100
  -0.0003181500   -0.0002164900   -0.0004237800
  -0.0003184300   -0.0002110400   -0.0004330800
   0.0004945000   -0.0001366600   -0.0000362100
   0.0004978300   -0.0001533700   -0.0000171400
   0.0004915500   -0.0001579600   -0.0000264200
   0.0005018200   -0.0001541100   -0.0000185000
   0.0004967500   -0.0001557000   -0.0000091100
   0.0005019600   -0.0001542400   -0.0000192800
   0.0004929500   -0.0001540700   -0.0000196400
   0.0005052100   -0.0003094500    0.0002096900
   0.0004987300   -0.0001546700   -0.0000193400
   0.0005081200   -0.0001495800   -0.0000142900
   0.0005001400   -0.0001556400   -0.0000179100
   0.0005049600   -0.0001559700   -0.0000164500
  -0.0002905200    0.0003503000    0.0001802400
   0.0000058500    0.0001948300   -0.0000092600
   0.0000119400    0.0001980800   -0.0000036800
   0.0000117100    0.0002031600   -0.0000072800
   0.0000219100    0.0001907000   -0.0000092200
   0.0000096500    0.0001981300   -0.0000082700
   0.0000072100    0.0002080800   -0.0000136100
   0.0000330800    0.0002408100    0.0000484000
   0.0000092200    0.0002037100   -0.0000117800
   0.0000102900    0.0002083600   -0.0000156100
   0.0000147600    0.0002043900   -0.0000120500
   0.0000073000    0.0002072800   -0.0000078800

1    
 -0.0099999016536666   0.0000000000000000  -0.0000443499379388
   0.2860543400    0.1733094000   -0.1715003000
   0.0004371900   -0.0005451000    0.0003483100
   0.0004392300   -0.0005876100    0.0003235500
   0.0004364600   -0.0005480900    0.0003532900
   0.0004392400   -0.0005331700    0.0003955300
   0.0004362600   -0.0005479100    0.0003525200
   0.0004178200   -0.0005784400    0.0003510000
   0.0004180300   -0.0005423800    0.0003730000
   0.0004411800   -0.0005440100    0.0003700800
   0.0004308600   -0.0005348700    0.0003653600
   0.0004414400   -0.0005450600    0.0003619900
   0.0004307300   -0.0005429400    0.0003627800
  -0.1468666800   -0.1099177100    0.0793774700
  -0.0003612600   -0.0002150100    0.0002466300
  -0.0003253300   -0.0001848100    0.0002385300
  -0.0003574000   -0.0002302200    0.0002363100
  -0.0004436500   -0.0002509900    0.0002021600
  -0.0003561000   -0.0002161800    0.0002441200
  -0.0003436700   -0.0002287600    0.0002399000
  -0.0003564800   -0.0002171300    0.0002353700
  -0.0003507300   -0.0002299500    0.0002451400
  -0.0003606200   -0.0002395700    0.0002360700
  -0.0003525800   -0.0002388300    0.0002419200
  -0.0003572000   -0.0002238200    0.0002380200
  -0.0079814100    0.0001371600    0.0357312600
   0.0001356600   -0.0004808000    0.0004924400
   0.0001435900   -0.0004466400    0.0005137300
   0.0001344100   -0.0004752400    0.0005040800
   0.0001655600   -0.0004336600    0.0004730700
   0.0001352900   -0.0004779900    0.0005007900
   0.0001068000   -0.0004866400    0.0005511100
   0.0001350500   -0.0004747400    0.0005143600
   0.0001360200   -0.0004694400    0.0005107000
   0.0001358700   -0.0004732100    0.0005096000
   0.0001366700   -0.0004626700    0.0005119700
   0.0001338800   -0.0004728800    0.0005094100
  -0.0002764000    0.0004311500   -0.0004496900
  -0.0002699100    0.0004551200   -0.0004273800
  -0.0002627900    0.0004561900   -0.0004164100
  -0.0002717900    0.0004463300   -0.0004248000
  -0.0002676300    0.0004285800   -0.0004228000
  -0.0002734800    0.0004552600   -0.0004245600
   0.0095963900    0.0030150000   -0.0070867600
  -0.0002766300    0.0004747500   -0.0004164100
  -0.0002589500    0.0004578700   -0.0004282600
  -0.0002746300    0.0004489600   -0.0004278300
  -0.0001869600    0.0004769200   -0.0004349100
  -0.0002685900    0.0004680000   -0.0004203300
   0.0001981300    0.0000427200   -0.0004654000
   0.0001838000    0.0001279100   -0.0004879200
   0.0001825100    0.0001109700   -0.0004742800
   0.0001789800    0.0001131700   -0.0004833800
   0.0002138400    0.0001305100   -0.0004875900
   0.0001744800    0.0001185600   -0.0004860300
  -0.0000766400    0.0059026800    0.0063708200
   0.0001626800    0.0001141300   -0.0004944600
   0.0001892400    0.0001265700   -0.0004759700
   0.0001715200    0.0001162100   -0.0004860000
   0.0001747100    0.0000916600   -0.0004681000
   0.0001713300    0.0001120800   -0.0004858600
  -0.0004921600   -0.0004210700   -0.0005535600
  -0.0004440900   -0.0005438500   -0.0003680400
  -0.0004340500   -0.0005395900   -0.0003633200
  -0.0004400700   -0.0005449300   -0.0003615100
  -0.0004942100   -0.0004593900   -0.0003622800
  -0.0004443100   -0.0005457000   -0.0003676600
  -0.0004550200   -0.0005343500   -0.0003529300
  -0.0004482500   -0.0004409500   -0.0003611400
  -0.0004380400   -0.0005476100   -0.0003564600
  -0.0004430800   -0.0005504200   -0.0003542600
  -0.0004546400   -0.0004984200   -0.0003491500
  -0.0004487900   -0.0004966000   -0.0003958400
   0.0003946700   -0.0001893300   -0.0001735100
   0.0003514100   -0.0002366500   -0.0002393400
   0.0003628300   -0.0002351900   -0.0002356100
   0.0003523100   -0.0002314500   -0.0002413100
   0.0005688800   -0.0003643600   -0.0003359900
   0.0003506200   -0.0002371600   -0.0002401500
   0.0003507100   -0.0002203900   -0.0002559800
   0.0003618400   -0.0002178400   -0.0003309700
   0.0003556900   -0.0002289200   -0.0002385700
   0.0003484700   -0.0002231000   -0.0002467500
   0.0003688800   -0.0002538300   -0.0002642800
   0.0003304500   -0.0002451700   -0.0002968900
  -0.0001125600   -0.0005036800   -0.0005390300
  -0.0001366200   -0.0004716800   -0.0005050200
  -0.0001346100   -0.0004702200   -0.0005062800
  -0.0001354100   -0.0004699900   -0.0005094600
  -0.0001943100   -0.0003258900   -0.0004718700
  -0.0001323500   -0.0004686000   -0.0005137000
  -0.0001358400   -0.0004647500   -0.0004833300
  -0.0000176900   -0.0005899200   -0.0004548200
  -0.0001337100   -0.0004723500   -0.0005066300
  -0.0001387900   -0.0004725300   -0.0005037800
  -0.0001545100   -0.0004025600   -0.0004663700
  -0.0000663000   -0.0004662200   -0.0004581800
   0.0002777900    0.0004617300    0.0003852900
   0.0002377600    0.0005021500    0.0004353400
   0.0002733500    0.0004517200    0.0004247400
   0.0002626200    0.0004554100    0.0004185100
   0.0002218400    0.0003584000    0.0005920500
   0.0002750400    0.0005025500    0.0004988900
   0.0002366400    0.0004798800    0.0004160300
   0.0002706400    0.0004337900    0.0004308700
   0.0002759900    0.0004486300    0.0004250700
   0.0002677900    0.0004491300    0.0004219900
   0.0002797100    0.0004639300    0.0004224700
   0.0002736700    0.0004428600    0.0004176800
  -0.0002043400    0.0001007500    0.0005011000
  -0.0001602900    0.0001630200    0.0005000300
  -0.0001723200    0.0001130000    0.0004822400
  -0.0001827400    0.0001137600    0.0004817900
  -0.0001089700   -0.0000880300    0.0002598100
  -0.0001717500    0.0000492100    0.0004702100
  -0.0001449000    0.0000928700    0.0004356900
  -0.0001969400    0.0001274500    0.0004976100
  -0.0001758000    0.0001146900    0.0004838200
  -0.0001806000    0.0001142700    0.0004802800
  -0.0001660200    0.0001073700    0.0004739600
  -0.0001875300    0.0001245400    0.0004814400
  -0.0004398600    0.0005431300   -0.0003665800
  -0.0004232500    0.0005426200   -0.0003742800
  -0.0004417700    0.0005468200   -0.0003641500
  -0.0004370300    0.0005403800   -0.0003506000
  -0.0004408700    0.0005521500   -0.0003758600
  -0.0006180000    0.0003380600   -0.0004974500
  -0.0004570000    0.0005501000   -0.0003483400
  -0.0004420100    0.0005372100   -0.0003635400
  -0.0004450700    0.0005506500   -0.0003550000
  -0.0004593800    0.0005323100   -0.0003704400
  -0.0004502600    0.0005592900   -0.0003446200
  -0.0039452900   -0.0063735800    0.0004572000
   0.0003511600    0.0002497600   -0.0002320400
   0.0003492200    0.0002111200   -0.0002367400
   0.0003509100    0.0002286600   -0.0002437600
   0.0003543900    0.0002282000   -0.0002414300
   0.0003383900    0.0002360200   -0.0002481200
   0.0003349900    0.0003803300   -0.0001794500
   0.0003491100    0.0002435300   -0.0002462500
   0.0003607400    0.0002566200   -0.0002680300
   0.0003493600    0.0002242900   -0.0002481300
   0.0003640100    0.0002313500   -0.0002601400
   0.0003443400    0.0002221000   -0.0002469400
   0.0027439300    0.0009921100   -0.0066550200
  -0.0001343900    0.0004577200   -0.0005220900
  -0.0001306200    0.0004791800   -0.0005132200
  -0.0001347200    0.0004708500   -0.0005083900
  -0.0001363000    0.0004720700   -0.0005086900
  -0.0001431000    0.0004643000   -0.0004989900
  -0.0001492100    0.0004398100   -0.0004621200
  -0.0001378500    0.0004686100   -0.0005053100
  -0.0001590600    0.0005080000   -0.0004263700
  -0.0001341400    0.0004733300   -0.0005043600
  -0.0001397800    0.0004873600   -0.0004790500
  -0.0001336300    0.0004695500   -0.0005059100
  -0.0152277200   -0.0112269100    0.0048671900
   0.0002665600   -0.0004430400    0.0004189200
   0.0002116900   -0.0005004200    0.0002730300
   0.0002652200   -0.0004540000    0.0004184300
   0.0002682000   -0.0004485500    0.0004172100
   0.0002629300   -0.0004496800    0.0004201000
   0.0192911000    0.0063559700   -0.0198885200
   0.0002722800   -0.0004209900    0.0004304500
   0.0002670300   -0.0004584500    0.0004238700
   0.0002659100   -0.0004513700    0.0004205200
   0.0002704400   -0.0004478000    0.0004246500
   0.0002574400   -0.0004506300    0.0004176000
   0.0002972500   -0.0004237900    0.0004332000
  -0.0001796100   -0.0001074300    0.0004768500
  -0.0001888600   -0.0000658000    0.0005239700
  -0.0001818800   -0.0001132000    0.0004825600
  -0.0001579700   -0.0001108000    0.0004875200
  -0.0001825000   -0.0001106800    0.0004773200
  -0.0874907600   -0.0542832000    0.0088583200
  -0.0001947400   -0.0001217600    0.0004704200
  -0.0001749300   -0.0001168900    0.0004824000
  -0.0001834800   -0.0001132500    0.0004799800
  -0.0001817800   -0.0001172400    0.0004857400
  -0.0001900300   -0.0001082900    0.0004752600
  -0.0001994100   -0.0001169300    0.0005188400
   0.0004258800    0.0005650200    0.0003414000
   0.0004277900    0.0005919100    0.0002255300
   0.0004425900    0.0005479500    0.0003575300
   0.0004426700    0.0005510700    0.0003516700
   0.0004275300    0.0006284700    0.0004043800
   0.0004281900    0.0005123400    0.0002471100
   0.0004492400    0.0005257900    0.0003349500
   0.0004498900    0.0005199500    0.0003641500
   0.0004355500    0.0005446400    0.0003632300