432  
54   

1    
  0.0099999016536667   0.0000000000000000   0.0000443499379332
  -0.2691480000   -0.1721180000    0.1809740000
  -0.0001116050    0.0000187056   -0.0001288470
  -0.0001074110    0.0000454265   -0.0001141210
  -0.0001063410    0.0000205909   -0.0001308150
  -0.0001074310    0.0000143079   -0.0001452200
  -0.0001063610    0.0000205756   -0.0001316680
  -0.0001050820    0.0000263222   -0.0001284270
  -0.0001032160    0.0000139616   -0.0001418850
  -0.0001069590    0.0000200322   -0.0001418660
  -0.0001033160    0.0000166560   -0.0001364440
  -0.0001069580    0.0000234404   -0.0001320980
  -0.0001032610    0.0000194167   -0.0001353060
   0.1322590000    0.1141700000   -0.0786117000
  -0.0000247520   -0.0000385711    0.0001495400
  -0.0000287424   -0.0000592554    0.0001366540
  -0.0000207786   -0.0000329116    0.0001550820
   0.0000056131    0.0000108506    0.0001663920
  -0.0000231999   -0.0000363674    0.0001509040
  -0.0000350283   -0.0000392789    0.0001531120
  -0.0000232905   -0.0000377738    0.0001501280
  -0.0000248240   -0.0000304043    0.0001511760
  -0.0000197268   -0.0000304856    0.0001508090
  -0.0000235940   -0.0000295111    0.0001519640
  -0.0000221183   -0.0000394914    0.0001495240
   0.0136422000   -0.0069997000   -0.0469251000
   0.0001310900   -0.0000603513   -0.0001070300
   0.0001221680   -0.0000681204   -0.0000891314
   0.0001324100   -0.0000612656   -0.0001094120
   0.0001243420   -0.0000757056   -0.0001067350
   0.0001325830   -0.0000619166   -0.0001089290
   0.0001400060   -0.0000483355   -0.0001234660
   0.0001324530   -0.0000644796   -0.0001156620
   0.0001355770   -0.0000647341   -0.0001137470
   0.0001335650   -0.0000635981   -0.0001120430
   0.0001343700   -0.0000659308   -0.0001125610
   0.0001328630   -0.0000614579   -0.0001108160
  -0.0000430304   -0.0000582288    0.0002495470
  -0.0000619394   -0.0000590261    0.0002736310
  -0.0000638071   -0.0000634304    0.0002710060
  -0.0000583291   -0.0000611481    0.0002718510
  -0.0000587407   -0.0000497963    0.0002743100
  -0.0000583415   -0.0000664802    0.0002707130
  -0.0116092000   -0.0026204800    0.0099131600
  -0.0000601654   -0.0000694698    0.0002664400
  -0.0000513426   -0.0000574616    0.0002597730
  -0.0000535153   -0.0000608629    0.0002740850
  -0.0000664475   -0.0000453808    0.0002870170
  -0.0000582728   -0.0000643008    0.0002702330
   0.0000652035   -0.0001018970   -0.0004550040
  -0.0000562275   -0.0000410417   -0.0002935800
  -0.0000526385   -0.0000360039   -0.0002911120
  -0.0000522502   -0.0000397175   -0.0002881210
  -0.0000710874   -0.0000541055   -0.0002734460
  -0.0000514621   -0.0000411073   -0.0002870510
   0.0002456640   -0.0078058300   -0.0090615800
  -0.0000533403   -0.0000456736   -0.0002883900
  -0.0000591132   -0.0000426164   -0.0002806660
  -0.0000469391   -0.0000406735   -0.0002891940
  -0.0000501898   -0.0000336143   -0.0002865220
  -0.0000499433   -0.0000410459   -0.0002887520
   0.0001363780   -0.0000028530    0.0002655670
   0.0001083230    0.0000192167    0.0001405410
   0.0001043490    0.0000207282    0.0001323130
   0.0001069730    0.0000215662    0.0001337520
   0.0001364770   -0.0000204162    0.0000982735
   0.0001082910    0.0000210896    0.0001328640
   0.0001093140    0.0000193729    0.0001393510
   0.0001057570    0.0000159356    0.0001469460
   0.0001056310    0.0000218941    0.0001323460
   0.0001061270    0.0000250786    0.0001308760
   0.0001096810    0.0000208505    0.0001304050
   0.0001057520    0.0000039999    0.0001372510
   0.0000255516   -0.0000339091   -0.0001915590
   0.0000222661   -0.0000285352   -0.0001488340
   0.0000184228   -0.0000286346   -0.0001525670
   0.0000236021   -0.0000332978   -0.0001508300
  -0.0000861219    0.0000832725   -0.0001303270
   0.0000241588   -0.0000359925   -0.0001475880
   0.0000282077   -0.0000360579   -0.0001516570
   0.0000382939   -0.0000517775   -0.0001405780
   0.0000218050   -0.0000322773   -0.0001539580
   0.0000257044   -0.0000403884   -0.0001487200
   0.0000253067   -0.0000296757   -0.0001381980
   0.0000264129   -0.0000333709   -0.0001475150
  -0.0001421310   -0.0000560527    0.0001334680
  -0.0001325170   -0.0000656157    0.0001087750
  -0.0001324250   -0.0000646151    0.0001106000
  -0.0001339530   -0.0000631731    0.0001108360
  -0.0000962318   -0.0001251660    0.0000974096
  -0.0001343600   -0.0000616743    0.0001094640
  -0.0001337260   -0.0000698301    0.0001070780
  -0.0001621920   -0.0000192365    0.0000892749
  -0.0001341150   -0.0000617558    0.0001116010
  -0.0001329830   -0.0000614352    0.0001073800
  -0.0001290280   -0.0000855321    0.0001036740
  -0.0001806550   -0.0000924143    0.0000917145
   0.0000623449   -0.0000740850   -0.0002764900
   0.0000695660   -0.0000776660   -0.0002615640
   0.0000557987   -0.0000604242   -0.0002735100
   0.0000597740   -0.0000648554   -0.0002689900
   0.0001122380   -0.0000152642   -0.0003054440
   0.0000664372   -0.0000712674   -0.0003014690
   0.0000765389   -0.0000659461   -0.0002827740
   0.0000584281   -0.0000534671   -0.0002740810
   0.0000555458   -0.0000590059   -0.0002734690
   0.0000592522   -0.0000628044   -0.0002705880
   0.0000618763   -0.0000679216   -0.0002754350
   0.0000572893   -0.0000644851   -0.0002659660
   0.0000348563   -0.0000213622    0.0002881640
   0.0000576754   -0.0000496448    0.0002842910
   0.0000461260   -0.0000353177    0.0002908550
   0.0000523454   -0.0000393107    0.0002879960
   0.0001022540   -0.0000557344    0.0003572450
   0.0000416176   -0.0000265197    0.0003102860
   0.0000445915   -0.0000361639    0.0003043830
   0.0000592567   -0.0000472764    0.0002839680
   0.0000509922   -0.0000388938    0.0002874480
   0.0000509072   -0.0000381596    0.0002889740
   0.0000474645   -0.0000337354    0.0002932920
   0.0000529828   -0.0000444905    0.0002873630
   0.0001068530   -0.0000221290    0.0001342960
   0.0001002490   -0.0000133837    0.0001497450
   0.0001102360   -0.0000212789    0.0001353960
   0.0001096050   -0.0000195674    0.0001259140
   0.0000961810   -0.0000252014    0.0001348160
   0.0002938670    0.0001128100    0.0001395470
   0.0001146850   -0.0000250231    0.0001278200
   0.0001023330   -0.0000168773    0.0001459560
   0.0001116420   -0.0000229346    0.0001317700
   0.0001111860   -0.0000167834    0.0001340650
   0.0001105640   -0.0000279822    0.0001260700
   0.0045166000    0.0089996500   -0.0010951700
   0.0000243870    0.0000340634   -0.0001508100
   0.0000222815    0.0000444127   -0.0001478120
   0.0000276298    0.0000351979   -0.0001479000
   0.0000236800    0.0000359132   -0.0001481580
   0.0000212285    0.0000288387   -0.0001518540
   0.0000320397   -0.0000111200   -0.0001951360
   0.0000259080    0.0000255571   -0.0001509840
   0.0000242109    0.0000124810   -0.0001675150
   0.0000273821    0.0000347303   -0.0001491210
   0.0000236522    0.0000300332   -0.0001502600
   0.0000266147    0.0000351371   -0.0001502710
  -0.0038495600   -0.0013088800    0.0085589000
  -0.0001365030    0.0000626061    0.0001134160
  -0.0001356230    0.0000613119    0.0001155650
  -0.0001351760    0.0000638215    0.0001099360
  -0.0001334700    0.0000631374    0.0001099300
  -0.0001377470    0.0000647492    0.0001058560
  -0.0001364920    0.0000652417    0.0001031220
  -0.0001348820    0.0000636992    0.0001074490
  -0.0001218250    0.0000532530    0.0000498008
  -0.0001349290    0.0000628028    0.0001091560
  -0.0001312760    0.0000625163    0.0001055270
  -0.0001348590    0.0000622779    0.0001072400
   0.0189098000    0.0170484000   -0.0083047100
   0.0000600566    0.0000584570   -0.0002683140
   0.0001254060    0.0001755460   -0.0002224930
   0.0000623368    0.0000611128   -0.0002688570
   0.0000621705    0.0000615519   -0.0002712220
   0.0000594819    0.0000613198   -0.0002695400
  -0.0223371000   -0.0073360000    0.0336584000
   0.0000625153    0.0000598989   -0.0002730020
   0.0000573479    0.0000624602   -0.0002734210
   0.0000645305    0.0000618895   -0.0002691840
   0.0000591230    0.0000599280   -0.0002701630
   0.0000654077    0.0000583223   -0.0002710930
   0.0000527490    0.0000620745   -0.0002691980
   0.0000522751    0.0000369855    0.0002916880
   0.0000546226    0.0000406746    0.0002865110
   0.0000553977    0.0000399216    0.0002898360
   0.0000489110    0.0000385494    0.0002941100
   0.0000505683    0.0000367432    0.0002893440
   0.0814738000    0.0495926000   -0.0236390000
   0.0000556349    0.0000361252    0.0002898190
   0.0000505734    0.0000402383    0.0002881860
   0.0000574208    0.0000399325    0.0002891100
   0.0000558800    0.0000431903    0.0002870290
   0.0000564688    0.0000338804    0.0002864730
   0.0000505407    0.0000352575    0.0002886850
  -0.0001361870   -0.0000442916   -0.0001192950
  -0.0001344700   -0.0000217030   -0.0001071830
  -0.0001120430   -0.0000204842   -0.0001325120
  -0.0001119430   -0.0000193303   -0.0001309750
  -0.0001107400   -0.0000352466   -0.0001541830
  -0.0001115800   -0.0000223119   -0.0000917906
  -0.0001057380   -0.0000187308   -0.0001255160
  -0.0001054680   -0.0000188333   -0.0001451140
  -0.0001075200   -0.0000200621   -0.0001354700
  -0.0001075100   -0.0000187427   -0.0001384860
  -0.0001122870   -0.0000196967   -0.0001228740
  -0.0001118920   -0.0000206720   -0.0001382550
  -0.0000259555    0.0000116020    0.0001381860
   0.0002605910   -0.0000301899    0.0002453110
  -0.0000253088    0.0000288461    0.0001505490
  -0.0000294994    0.0000416112    0.0001461270
  -0.0000312672    0.0000362631    0.0001642990
   0.0000056978    0.0000223326    0.0001353710
  -0.0000206741    0.0000491529    0.0001431060
  -0.0000213001    0.0000220799    0.0001545740
  -0.0000217966    0.0000301029    0.0001523170
  -0.0000244080    0.0000345230    0.0001503500
  -0.0000170915    0.0000288820    0.0001406210
  -0.0000285260    0.0000362957    0.0001518150
   0.0001365460    0.0000663555   -0.0001228570
   0.0001360860    0.0000180706   -0.0001032010
   0.0001356060    0.0000628757   -0.0001107750
   0.0001333740    0.0000607621   -0.0001048780
   0.0001321680    0.0000654630   -0.0001181920
   0.0001043010    0.0000516801   -0.0001291170
   0.0001311560    0.0000307194   -0.0001412180
   0.0001289470    0.0000680991   -0.0001070540
   0.0001342680    0.0000645535   -0.0001120260
   0.0001347950    0.0000628901   -0.0001117850
   0.0001240410    0.0000654369   -0.0000847613
   0.0001346770    0.0000619694   -0.0001098730
  -0.0000140132    0.0001231660    0.0002527420
  -0.0000589988    0.0000587215    0.0002745390
  -0.0000582735    0.0000562771    0.0002750260
  -0.0000599858    0.0000602004    0.0002714690
  -0.0000489811    0.0000378155    0.0002691750
  -0.0000623836    0.0000639757    0.0002710530
  -0.0000586896    0.0000590647    0.0002722480
  -0.0000106429    0.0001523360    0.0002990880
  -0.0000609284    0.0000593874    0.0002696820
  -0.0000667282    0.0000720529    0.0002640870
  -0.0000605626    0.0000631593    0.0002758170
  -0.0000707495    0.0000548883    0.0002730090
   0.0001785520    0.0002355270    0.0000340210
  -0.0000552225    0.0000442414   -0.0002837590
  -0.0000566947    0.0000416040   -0.0002869500
  -0.0000565068    0.0000435502   -0.0002864100
  -0.0000650057    0.0000382107   -0.0002645970
  -0.0000527347    0.0000396109   -0.0002895920
  -0.0000535176    0.0000452830   -0.0002834100
  -0.0000168532    0.0000402559   -0.0003557000
  -0.0000526370    0.0000384318   -0.0002918620
  -0.0000545988    0.0000419240   -0.0002923200
  -0.0000516703    0.0000396627   -0.0002953660
  -0.0000639723    0.0000525668   -0.0002888430
   0.0533397000   -0.0083499500   -0.0641949000
   0.0000326763   -0.0000323044   -0.0000141138
   0.0000321542   -0.0000517515   -0.0000259587
   0.0000321902   -0.0000328064   -0.0000150362
   0.0000369245   -0.0000377258   -0.0000106233
   0.0000314645   -0.0000326521   -0.0000141147
   0.0000302149   -0.0000375025   -0.0000187817
   0.0000267966   -0.0000310560   -0.0000083297
   0.0000344987   -0.0000323441   -0.0000105468
   0.0000288727   -0.0000282965   -0.0000105162
   0.0000330116   -0.0000332560   -0.0000147987
   0.0000294011   -0.0000318814   -0.0000121481
   0.0028071200    0.0030495800   -0.0036589300
  -0.0000300304    0.0000169124   -0.0000086494
  -0.0000317014    0.0000049621   -0.0000099904
  -0.0000294033    0.0000123627   -0.0000117016
  -0.0000389985   -0.0000063649   -0.0000201137
  -0.0000281089    0.0000120031   -0.0000104847
  -0.0000232796    0.0000120527   -0.0000126363
  -0.0000253321    0.0000185142   -0.0000122564
  -0.0000265459    0.0000112276   -0.0000106793
  -0.0000287463    0.0000127064   -0.0000108628
  -0.0000269169    0.0000085533   -0.0000112476
  -0.0000282406    0.0000140601   -0.0000107235
   0.0000446292   -0.0000255051    0.0000034106
   0.0000354868   -0.0000192746   -0.0000080967
   0.0000366100   -0.0000210715   -0.0000085754
   0.0000337418   -0.0000199456   -0.0000081330
   0.0000398287   -0.0000236020   -0.0000061640
   0.0000337005   -0.0000188924   -0.0000077774
   0.0001035760   -0.0000512177    0.0001047340
   0.0000269178   -0.0000174216   -0.0000081107
   0.0000319617   -0.0000235353   -0.0000049126
   0.0000316226   -0.0000196317   -0.0000083502
   0.0000251760   -0.0000146951   -0.0000036259
   0.0000325354   -0.0000212149   -0.0000073797
   0.0001056830   -0.0000793184   -0.0000500542
  -0.0001347610    0.0000446980    0.0001072610
  -0.0001356970    0.0000419961    0.0001079220
  -0.0001374650    0.0000422584    0.0001081250
  -0.0001253700    0.0000381013    0.0001093000
  -0.0001383430    0.0000422975    0.0001069440
   0.0003570070   -0.0002023260    0.0003425810
  -0.0001396360    0.0000440293    0.0001039760
  -0.0001392650    0.0000397762    0.0001124860
  -0.0001399740    0.0000426020    0.0001080000
  -0.0001394220    0.0000407461    0.0001092090
  -0.0001400580    0.0000413763    0.0001065750
  -0.0000132025   -0.0000000464   -0.0000292253
  -0.0000363985   -0.0000317102    0.0000078006
  -0.0000305661   -0.0000298262    0.0000127184
  -0.0000329123   -0.0000328458    0.0000127832
  -0.0000499044   -0.0000204113    0.0000593637
  -0.0000336671   -0.0000342327    0.0000115805
  -0.0000332159   -0.0000336133    0.0000149372
  -0.0000357138   -0.0000437752    0.0000240932
  -0.0000317491   -0.0000331911    0.0000145344
  -0.0000324469   -0.0000355840    0.0000160454
  -0.0000301262   -0.0000345164    0.0000131977
  -0.0000327576   -0.0000317357    0.0000139757
   0.0000198078    0.0000277065    0.0000142915
   0.0000269503    0.0000120902    0.0000091489
   0.0000320597    0.0000104065    0.0000123457
   0.0000277606    0.0000109937    0.0000106487
   0.0000219465   -0.0000322841    0.0000232916
   0.0000259300    0.0000124752    0.0000095869
   0.0000266330    0.0000142293    0.0000108611
   0.0000264025    0.0000059104    0.0000170355
   0.0000290772    0.0000109532    0.0000125124
   0.0000276482    0.0000103672    0.0000101723
   0.0000173657    0.0000066345    0.0000116395
   0.0000213739    0.0000107804    0.0000061698
  -0.0000315196   -0.0000178235    0.0000115383
  -0.0000361590   -0.0000249271    0.0000040704
  -0.0000334294   -0.0000208860    0.0000090912
  -0.0000356865   -0.0000209947    0.0000068875
   0.0000246032   -0.0000783386    0.0000090886
  -0.0000510452   -0.0000261028    0.0000030076
  -0.0000352722   -0.0000183394    0.0000102723
  -0.0000356086   -0.0000202966    0.0000073948
  -0.0000305714   -0.0000207885    0.0000096221
  -0.0000350351   -0.0000204262    0.0000077443
  -0.0000266465   -0.0000224221    0.0000073486
  -0.0000347134   -0.0000194686    0.0000058868
   0.0001417000    0.0000397201   -0.0001007040
   0.0001431530    0.0000277061   -0.0001136320
   0.0001398390    0.0000404020   -0.0001099890
   0.0001379990    0.0000395712   -0.0001089660
   0.0001318940   -0.0000060814   -0.0000791752
   0.0001286780    0.0000317003   -0.0001115120
   0.0001329850    0.0000436360   -0.0001060360
   0.0001323450    0.0000491145   -0.0001078070
   0.0001380410    0.0000421309   -0.0001083050
   0.0001380700    0.0000410869   -0.0001082240
   0.0001337790    0.0000415758   -0.0001027470
   0.0001425750    0.0000423306   -0.0001062240
  -0.0000325488    0.0000330139    0.0000129286
  -0.0000283376    0.0000344662    0.0000061871
  -0.0000340581    0.0000345735    0.0000121767
  -0.0000305015    0.0000316654    0.0000123289
  -0.0000341532    0.0000328486    0.0000096377
   0.0002410570    0.0000644190   -0.0001725910
  -0.0000380867    0.0000346752    0.0000148085
  -0.0000355792    0.0000294194    0.0000201268
  -0.0000349244    0.0000357757    0.0000138759
  -0.0000330560    0.0000309936    0.0000112188
  -0.0000364135    0.0000371388    0.0000174573
  -0.0001045100    0.0000698238    0.0000205638
   0.0000264398   -0.0000134965    0.0000107381
   0.0000254551   -0.0000177293    0.0000141273
   0.0000251235   -0.0000125699    0.0000096415
   0.0000270893   -0.0000132476    0.0000094717
   0.0000200470   -0.0000021759    0.0000075160
   0.0000205629   -0.0000253802    0.0000195558
   0.0000266370   -0.0000084431    0.0000089312
   0.0000359692   -0.0000087718    0.0000102943
   0.0000253710   -0.0000121249    0.0000096077
   0.0000243367   -0.0000153709    0.0000069261
   0.0000269502   -0.0000077881    0.0000099944
   0.0001870360   -0.0001004000    0.0001466290
  -0.0000353480    0.0000208356    0.0000066148
  -0.0000724980    0.0000455594   -0.0001020170
  -0.0000363130    0.0000209852    0.0000064522
  -0.0000370140    0.0000190567    0.0000052809
  -0.0000369609    0.0000223308    0.0000068208
  -0.0058461400    0.0021146000   -0.0043102400
  -0.0000404572    0.0000180196    0.0000073196
  -0.0000331889    0.0000195529    0.0000097148
  -0.0000370862    0.0000207447    0.0000066347
  -0.0000350205    0.0000196443    0.0000066480
  -0.0000423891    0.0000260370    0.0000047150
  -0.0000339537    0.0000198337    0.0000060073
   0.0001368730   -0.0000406522   -0.0001097210
   0.0001190540   -0.0000346765   -0.0000757468
   0.0001347840   -0.0000415226   -0.0001083800
   0.0001338970   -0.0000463389   -0.0001063700
   0.0001369870   -0.0000390249   -0.0001098780
   0.0037353900    0.0119928000    0.0058301300
   0.0001309650   -0.0000421379   -0.0001114330
   0.0001379990   -0.0000441459   -0.0001085240
   0.0001331280   -0.0000422073   -0.0001078600
   0.0001349880   -0.0000432430   -0.0001076450
   0.0001336360   -0.0000389541   -0.0001096190
   0.0001384960   -0.0000359907   -0.0001084900
   0.0000350718    0.0000340795   -0.0000002157
   0.0000381981    0.0000285358   -0.0000251151
   0.0000345034    0.0000334605   -0.0000122201
   0.0000344465    0.0000331744   -0.0000136752
   0.0000261245    0.0000371596   -0.0000174413
   0.0000259819    0.0000322461   -0.0000206279
   0.0000282987    0.0000334373   -0.0000087506
   0.0000421367    0.0000283694   -0.0000103642
   0.0000323125    0.0000325639   -0.0000121372
   0.0000318130    0.0000338900   -0.0000107052
   0.0000303019    0.0000319199   -0.0000094048
   0.0000373725    0.0000358922   -0.0000136864
  -0.0000288399   -0.0000113204   -0.0000050870
  -0.0001433020   -0.0000804701   -0.0000065432
  -0.0000253016   -0.0000123839   -0.0000096079
  -0.0000236571   -0.0000151540   -0.0000050787
  -0.0000222542   -0.0000149482   -0.0000103269
  -0.0000328194   -0.0000097502   -0.0000100391
  -0.0000316576   -0.0000142540   -0.0000112362
  -0.0000306199   -0.0000050274   -0.0000045340
  -0.0000288420   -0.0000129048   -0.0000122792
  -0.0000259994   -0.0000144407   -0.0000114294
  -0.0000271768   -0.0000159311   -0.0000050920
  -0.0000250603   -0.0000126012   -0.0000100319
   0.0000204742    0.0000199329   -0.0000162793
   0.0000354662    0.0000209679   -0.0000078911
   0.0000322133    0.0000205996   -0.0000093885
   0.0000351509    0.0000196433   -0.0000070188
   0.0000336033    0.0000185969   -0.0000025203
   0.0000359678    0.0000202642   -0.0000072436
   0.0000298518    0.0000200236   -0.0000072769
   0.0000370436   -0.0000893382    0.0001074820
   0.0000355054    0.0000208742   -0.0000069061
   0.0000364714    0.0000194136   -0.0000053207
   0.0000344421    0.0000194056   -0.0000077541
   0.0000381899    0.0000222729   -0.0000043167
  -0.0000240519    0.0000371655    0.0002756290
  -0.0001381170   -0.0000467184    0.0001054420
  -0.0001324680   -0.0000446055    0.0001079160
  -0.0001348240   -0.0000435954    0.0001070650
  -0.0001304160   -0.0000530668    0.0001082570
  -0.0001361120   -0.0000428625    0.0001067960
  -0.0001400840   -0.0000404368    0.0001091690
  -0.0001478400   -0.0000380978    0.0001348970
  -0.0001363390   -0.0000417701    0.0001089690
  -0.0001348050   -0.0000428199    0.0001059400
  -0.0001350610   -0.0000423900    0.0001072210
  -0.0001346220   -0.0000407205    0.0001091060

1    
 -0.0099999016536667   0.0000000000000000  -0.0000443499379332
   0.2656790000    0.1697200000   -0.1769120000
  -0.0001043440    0.0000235615   -0.0001373750
  -0.0001081460   -0.0000036805   -0.0001528810
  -0.0001095600    0.0000215586   -0.0001354610
  -0.0001084460    0.0000276930   -0.0001210340
  -0.0001095780    0.0000215279   -0.0001345650
  -0.0001111580    0.0000153073   -0.0001386680
  -0.0001126050    0.0000279004   -0.0001241640
  -0.0001089540    0.0000220162   -0.0001242440
  -0.0001125400    0.0000253449   -0.0001298740
  -0.0001088630    0.0000186272   -0.0001343320
  -0.0001124750    0.0000225900   -0.0001309740
  -0.1315890000   -0.1110060000    0.0758624000
  -0.0000234818   -0.0000289615    0.0001513510
  -0.0000193329   -0.0000084784    0.0001646980
  -0.0000274431   -0.0000348697    0.0001457540
  -0.0000536724   -0.0000781911    0.0001348600
  -0.0000249817   -0.0000312553    0.0001500940
  -0.0000127687   -0.0000283573    0.0001467290
  -0.0000245798   -0.0000297696    0.0001511890
  -0.0000232056   -0.0000372061    0.0001496160
  -0.0000284095   -0.0000372146    0.0001504310
  -0.0000244741   -0.0000380698    0.0001490170
  -0.0000259349   -0.0000283791    0.0001516120
  -0.0133923000    0.0071053000    0.0463604000
   0.0001369880   -0.0000651030   -0.0001129710
   0.0001460060   -0.0000567253   -0.0001309550
   0.0001355860   -0.0000642557   -0.0001105780
   0.0001431010   -0.0000498256   -0.0001122480
   0.0001354700   -0.0000634977   -0.0001111250
   0.0001276910   -0.0000771903   -0.0000953914
   0.0001354370   -0.0000610950   -0.0001045670
   0.0001323220   -0.0000608828   -0.0001061870
   0.0001344720   -0.0000618049   -0.0001081280
   0.0001338150   -0.0000595072   -0.0001078770
   0.0001350550   -0.0000639925   -0.0001092450
  -0.0000758700   -0.0000654370    0.0002897060
  -0.0000576260   -0.0000642280    0.0002679280
  -0.0000556475   -0.0000593832    0.0002702840
  -0.0000612408   -0.0000621485    0.0002695640
  -0.0000605986   -0.0000729843    0.0002671410
  -0.0000612373   -0.0000569149    0.0002707560
   0.0115186000    0.0024744100   -0.0093204700
  -0.0000593432   -0.0000533099    0.0002747830
  -0.0000682833   -0.0000663291    0.0002815840
  -0.0000661548   -0.0000622790    0.0002671220
  -0.0000541476   -0.0000788744    0.0002538280
  -0.0000612691   -0.0000588861    0.0002709490
  -0.0001736190    0.0000226541   -0.0001212370
  -0.0000494152   -0.0000386433   -0.0002849550
  -0.0000534849   -0.0000441353   -0.0002869270
  -0.0000534135   -0.0000399455   -0.0002902350
  -0.0000343374   -0.0000253046   -0.0003050180
  -0.0000543220   -0.0000387222   -0.0002911790
  -0.0003218350    0.0077210800    0.0084477900
  -0.0000525796   -0.0000341065   -0.0002897830
  -0.0000463694   -0.0000369944   -0.0002977090
  -0.0000590705   -0.0000392104   -0.0002889590
  -0.0000556918   -0.0000459922   -0.0002921630
  -0.0000557755   -0.0000386756   -0.0002895580
   0.0000789875    0.0000440148    0.0000049259
   0.0001072140    0.0000227167    0.0001261540
   0.0001112410    0.0000212700    0.0001343310
   0.0001086880    0.0000204622    0.0001327710
   0.0000776061    0.0000637832    0.0001688040
   0.0001071120    0.0000208394    0.0001339400
   0.0001061440    0.0000226369    0.0001266380
   0.0001106080    0.0000271629    0.0001176220
   0.0001100920    0.0000201856    0.0001339590
   0.0001096550    0.0000170060    0.0001355640
   0.0001064360    0.0000209221    0.0001350010
   0.0001105080    0.0000385790    0.0001285250
   0.0000235921   -0.0000339628   -0.0001106740
   0.0000264481   -0.0000393525   -0.0001527290
   0.0000299776   -0.0000390398   -0.0001486450
   0.0000250135   -0.0000346439   -0.0001503720
   0.0001342690   -0.0001488290   -0.0001713550
   0.0000244336   -0.0000318600   -0.0001539160
   0.0000199649   -0.0000315972   -0.0001508010
   0.0000098446   -0.0000158557   -0.0001598150
   0.0000268286   -0.0000357490   -0.0001472330
   0.0000228443   -0.0000273427   -0.0001524170
   0.0000232036   -0.0000397996   -0.0001627080
   0.0000219959   -0.0000341346   -0.0001527550
  -0.0001260740   -0.0000692433    0.0000866065
  -0.0001357350   -0.0000597798    0.0001116040
  -0.0001355530   -0.0000609450    0.0001093470
  -0.0001340560   -0.0000622735    0.0001090320
  -0.0001706610   -0.0000016213    0.0001212080
  -0.0001335810   -0.0000640226    0.0001104880
  -0.0001341940   -0.0000552874    0.0001127910
  -0.0001048970   -0.0001073790    0.0001296530
  -0.0001338560   -0.0000636085    0.0001081570
  -0.0001350200   -0.0000640840    0.0001124830
  -0.0001385100   -0.0000392147    0.0001144680
  -0.0000875575   -0.0000324427    0.0001294040
   0.0000561823   -0.0000489805   -0.0002656270
   0.0000491286   -0.0000439965   -0.0002796440
   0.0000638329   -0.0000630603   -0.0002676900
   0.0000597514   -0.0000583252   -0.0002722820
   0.0000073951   -0.0001122490   -0.0002346970
   0.0000522780   -0.0000528463   -0.0002395550
   0.0000436916   -0.0000575227   -0.0002588210
   0.0000615765   -0.0000705027   -0.0002672230
   0.0000638905   -0.0000640502   -0.0002679510
   0.0000604464   -0.0000605710   -0.0002706970
   0.0000577709   -0.0000551667   -0.0002660310
   0.0000627211   -0.0000583226   -0.0002760530
   0.0000690276   -0.0000579275    0.0002903590
   0.0000480249   -0.0000299595    0.0002936580
   0.0000593928   -0.0000442288    0.0002874340
   0.0000533492   -0.0000403747    0.0002901080
   0.0000034363   -0.0000236476    0.0002228060
   0.0000641959   -0.0000539005    0.0002666070
   0.0000610378   -0.0000434448    0.0002740490
   0.0000458737   -0.0000313709    0.0002947760
   0.0000547490   -0.0000408208    0.0002905400
   0.0000547746   -0.0000413913    0.0002892380
   0.0000581430   -0.0000457085    0.0002848100
   0.0000534192   -0.0000349318    0.0002908590
   0.0001088850   -0.0000199324    0.0001320970
   0.0001152960   -0.0000287581    0.0001168110
   0.0001054980   -0.0000207972    0.0001311060
   0.0001060820   -0.0000222131    0.0001410940
   0.0001193200   -0.0000169672    0.0001318910
  -0.0000857237   -0.0001581170    0.0001271970
   0.0001009800   -0.0000169954    0.0001386520
   0.0001142330   -0.0000250718    0.0001197790
   0.0001041220   -0.0000191124    0.0001347480
   0.0001045420   -0.0000257322    0.0001318780
   0.0001052550   -0.0000140029    0.0001403330
  -0.0042902600   -0.0090226400    0.0013619300
   0.0000241316    0.0000339860   -0.0001502260
   0.0000259210    0.0000231998   -0.0001536800
   0.0000208866    0.0000327548   -0.0001530330
   0.0000247470    0.0000316803   -0.0001532900
   0.0000273771    0.0000389585   -0.0001490500
   0.0000173109    0.0000819651   -0.0001061180
   0.0000224988    0.0000425742   -0.0001502090
   0.0000254884    0.0000562188   -0.0001328020
   0.0000211127    0.0000331988   -0.0001521990
   0.0000249444    0.0000383394   -0.0001504700
   0.0000218229    0.0000326743   -0.0001511480
   0.0038771100    0.0013650700   -0.0088202000
  -0.0001316120    0.0000627563    0.0001065440
  -0.0001321340    0.0000643006    0.0001041090
  -0.0001328220    0.0000616754    0.0001098560
  -0.0001345920    0.0000623003    0.0001101070
  -0.0001303460    0.0000606894    0.0001138780
  -0.0001322040    0.0000591361    0.0001180970
  -0.0001329820    0.0000617266    0.0001122890
  -0.0001464270    0.0000719139    0.0001697800
  -0.0001330580    0.0000625839    0.0001106900
  -0.0001365030    0.0000629461    0.0001138610
  -0.0001330300    0.0000631644    0.0001125370
  -0.0191592000   -0.0169874000    0.0084504100
   0.0000594632    0.0000652661   -0.0002730530
  -0.0000045611   -0.0000524975   -0.0003176920
   0.0000571518    0.0000623711   -0.0002725060
   0.0000573068    0.0000616738   -0.0002697600
   0.0000599660    0.0000622623   -0.0002718980
   0.0223937000    0.0074365400   -0.0342317000
   0.0000570215    0.0000634216   -0.0002681490
   0.0000620505    0.0000608495   -0.0002681690
   0.0000551224    0.0000614617   -0.0002719680
   0.0000604764    0.0000635298   -0.0002713120
   0.0000542895    0.0000647517   -0.0002700910
   0.0000675286    0.0000624041   -0.0002729330
   0.0000533258    0.0000426950    0.0002863470
   0.0000494126    0.0000375541    0.0002943140
   0.0000501344    0.0000396397    0.0002882880
   0.0000570913    0.0000413199    0.0002837940
   0.0000548860    0.0000429236    0.0002888250
  -0.0805460000   -0.0499133000    0.0243903000
   0.0000500381    0.0000434124    0.0002882630
   0.0000555722    0.0000398676    0.0002893190
   0.0000484797    0.0000397356    0.0002888500
   0.0000496574    0.0000363190    0.0002911360
   0.0000494579    0.0000455646    0.0002914310
   0.0000544652    0.0000444671    0.0002900040
  -0.0000818821    0.0000011808   -0.0001457480
  -0.0000800202   -0.0000198181   -0.0001614820
  -0.0001040260   -0.0000216459   -0.0001335870
  -0.0001039190   -0.0000227287   -0.0001353710
  -0.0001046880   -0.0000076839   -0.0001124060
  -0.0001049730   -0.0000192499   -0.0001754260
  -0.0001100120   -0.0000232945   -0.0001407770
  -0.0001099120   -0.0000226128   -0.0001221190
  -0.0001083680   -0.0000219627   -0.0001309150